    1C
    1UUSER                                                              
    1UDATE              12.july.2025                                    
    1UTIME              23:12:59                                        
    1UHOST                                                              
    1UPGM               CalculiX                                        
    1UVERSION           Version 2.22                             
    1UCOMPILETIME       Mon Aug  5 19:15:25 CEST 2024                    
    1UDIR                                                               
    1UDBN                                                               
    1UMAT    1STEEL                                                     
    2C                          8149                                     1
 -1         1-9.97930E+00-1.50000E+01 4.54545E-01
 -1         2-1.04772E+01-1.50000E+01-2.77556E-16
 -1         3-1.04772E+01 1.50000E+01-2.77556E-16
 -1         4-9.97930E+00 1.50000E+01 4.54545E-01
 -1         5-5.00000E+00-1.50000E+01 5.00000E+00
 -1         6-5.00000E+00 1.50000E+01 5.00000E+00
 -1         7-4.00000E+01 1.50000E+01-2.77556E-16
 -1         8-4.00000E+01 1.50000E+01 1.00000E+01
 -1         9 4.00000E+01 1.50000E+01 1.00000E+01
 -1        10 4.00000E+01 1.50000E+01-2.77556E-16
 -1        11 1.04772E+01 1.50000E+01-2.77556E-16
 -1        12 9.97930E+00 1.50000E+01 4.54545E-01
 -1        13 5.00000E+00 1.50000E+01 5.00000E+00
 -1        14 1.04772E+01-1.50000E+01-2.77556E-16
 -1        15 9.97930E+00-1.50000E+01 4.54545E-01
 -1        16 5.00000E+00-1.50000E+01 5.00000E+00
 -1        17 4.00000E+01-1.50000E+01-2.77556E-16
 -1        18 4.00000E+01-1.50000E+01 1.00000E+01
 -1        19-4.00000E+01-1.50000E+01 1.00000E+01
 -1        20-4.00000E+01-1.50000E+01-2.77556E-16
 -1        21-1.01401E+01-1.50000E+01 1.30726E-01
 -1        22-1.00294E+01-1.50000E+01 2.77589E-01
 -1        23-1.02964E+01-1.50000E+01 3.38256E-02
 -1        24-1.04772E+01-1.20000E+01-2.77556E-16
 -1        25-1.04772E+01-9.00000E+00-2.77556E-16
 -1        26-1.04772E+01-6.00000E+00-2.77556E-16
 -1        27-1.04772E+01-3.00000E+00-2.77556E-16
 -1        28-1.04772E+01 0.00000E+00-2.77556E-16
 -1        29-1.04772E+01 3.00000E+00-2.77556E-16
 -1        30-1.04772E+01 6.00000E+00-2.77556E-16
 -1        31-1.04772E+01 9.00000E+00-2.77556E-16
 -1        32-1.04772E+01 1.20000E+01-2.77556E-16
 -1        33-1.04772E+01-1.35000E+01-2.77556E-16
 -1        34-1.04772E+01-1.05000E+01-2.77556E-16
 -1        35-1.04772E+01-7.50000E+00-2.77556E-16
 -1        36-1.04772E+01-4.50000E+00-2.77556E-16
 -1        37-1.04772E+01-1.50000E+00-2.77556E-16
 -1        38-1.04772E+01 1.50000E+00-2.77556E-16
 -1        39-1.04772E+01 4.50000E+00-2.77556E-16
 -1        40-1.04772E+01 7.50000E+00-2.77556E-16
 -1        41-1.04772E+01 1.05000E+01-2.77556E-16
 -1        42-1.04772E+01 1.35000E+01-2.77556E-16
 -1        43-1.01401E+01 1.50000E+01 1.30726E-01
 -1        44-1.02964E+01 1.50000E+01 3.38256E-02
 -1        45-1.00294E+01 1.50000E+01 2.77589E-01
 -1        46-9.97930E+00 1.20000E+01 4.54545E-01
 -1        47-9.97930E+00 9.00000E+00 4.54545E-01
 -1        48-9.97930E+00 6.00000E+00 4.54545E-01
 -1        49-9.97930E+00 3.00000E+00 4.54545E-01
 -1        50-9.97930E+00 0.00000E+00 4.54545E-01
 -1        51-9.97930E+00-3.00000E+00 4.54545E-01
 -1        52-9.97930E+00-6.00000E+00 4.54545E-01
 -1        53-9.97930E+00-9.00000E+00 4.54545E-01
 -1        54-9.97930E+00-1.20000E+01 4.54545E-01
 -1        55-9.97930E+00 1.35000E+01 4.54545E-01
 -1        56-9.97930E+00 1.05000E+01 4.54545E-01
 -1        57-9.97930E+00 7.50000E+00 4.54545E-01
 -1        58-9.97930E+00 4.50000E+00 4.54545E-01
 -1        59-9.97930E+00 1.50000E+00 4.54545E-01
 -1        60-9.97930E+00-1.50000E+00 4.54545E-01
 -1        61-9.97930E+00-4.50000E+00 4.54545E-01
 -1        62-9.97930E+00-7.50000E+00 4.54545E-01
 -1        63-9.97930E+00-1.05000E+01 4.54545E-01
 -1        64-9.97930E+00-1.35000E+01 4.54545E-01
 -1        65-9.17052E+00-1.50000E+01 2.75803E+00
 -1        66-7.36747E+00-1.50000E+01 4.40398E+00
 -1        67-9.71766E+00-1.50000E+01 1.65641E+00
 -1        68-8.37100E+00-1.50000E+01 3.69274E+00
 -1        69-6.22067E+00-1.50000E+01 4.84871E+00
 -1        70-5.00000E+00-1.20000E+01 5.00000E+00
 -1        71-5.00000E+00-9.00000E+00 5.00000E+00
 -1        72-5.00000E+00-6.00000E+00 5.00000E+00
 -1        73-5.00000E+00-3.00000E+00 5.00000E+00
 -1        74-5.00000E+00 0.00000E+00 5.00000E+00
 -1        75-5.00000E+00 3.00000E+00 5.00000E+00
 -1        76-5.00000E+00 6.00000E+00 5.00000E+00
 -1        77-5.00000E+00 9.00000E+00 5.00000E+00
 -1        78-5.00000E+00 1.20000E+01 5.00000E+00
 -1        79-5.00000E+00-1.35000E+01 5.00000E+00
 -1        80-5.00000E+00-1.05000E+01 5.00000E+00
 -1        81-5.00000E+00-7.50000E+00 5.00000E+00
 -1        82-5.00000E+00-4.50000E+00 5.00000E+00
 -1        83-5.00000E+00-1.50000E+00 5.00000E+00
 -1        84-5.00000E+00 1.50000E+00 5.00000E+00
 -1        85-5.00000E+00 4.50000E+00 5.00000E+00
 -1        86-5.00000E+00 7.50000E+00 5.00000E+00
 -1        87-5.00000E+00 1.05000E+01 5.00000E+00
 -1        88-5.00000E+00 1.35000E+01 5.00000E+00
 -1        89-7.36747E+00 1.50000E+01 4.40398E+00
 -1        90-9.17052E+00 1.50000E+01 2.75803E+00
 -1        91-6.22067E+00 1.50000E+01 4.84871E+00
 -1        92-8.37100E+00 1.50000E+01 3.69274E+00
 -1        93-9.71766E+00 1.50000E+01 1.65641E+00
 -1        94-1.34295E+01 1.50000E+01-2.77556E-16
 -1        95-1.63818E+01 1.50000E+01-2.77556E-16
 -1        96-1.93341E+01 1.50000E+01-2.77556E-16
 -1        97-2.22863E+01 1.50000E+01-2.77556E-16
 -1        98-2.52386E+01 1.50000E+01-2.77556E-16
 -1        99-2.81909E+01 1.50000E+01-2.77556E-16
 -1       100-3.11432E+01 1.50000E+01-2.77556E-16
 -1       101-3.40954E+01 1.50000E+01-2.77556E-16
 -1       102-3.70477E+01 1.50000E+01-2.77556E-16
 -1       103-1.19534E+01 1.50000E+01-2.77556E-16
 -1       104-1.49056E+01 1.50000E+01-2.77556E-16
 -1       105-1.78579E+01 1.50000E+01-2.77556E-16
 -1       106-2.08102E+01 1.50000E+01-2.77556E-16
 -1       107-2.37625E+01 1.50000E+01-2.77556E-16
 -1       108-2.67148E+01 1.50000E+01-2.77556E-16
 -1       109-2.96670E+01 1.50000E+01-2.77556E-16
 -1       110-3.26193E+01 1.50000E+01-2.77556E-16
 -1       111-3.55716E+01 1.50000E+01-2.77556E-16
 -1       112-3.85239E+01 1.50000E+01-2.77556E-16
 -1       113-4.00000E+01 1.50000E+01 2.50000E+00
 -1       114-4.00000E+01 1.50000E+01 5.00000E+00
 -1       115-4.00000E+01 1.50000E+01 7.50000E+00
 -1       116-4.00000E+01 1.50000E+01 1.25000E+00
 -1       117-4.00000E+01 1.50000E+01 3.75000E+00
 -1       118-4.00000E+01 1.50000E+01 6.25000E+00
 -1       119-4.00000E+01 1.50000E+01 8.75000E+00
 -1       120-3.70370E+01 1.50000E+01 1.00000E+01
 -1       121-3.40741E+01 1.50000E+01 1.00000E+01
 -1       122-3.11111E+01 1.50000E+01 1.00000E+01
 -1       123-2.81481E+01 1.50000E+01 1.00000E+01
 -1       124-2.51852E+01 1.50000E+01 1.00000E+01
 -1       125-2.22222E+01 1.50000E+01 1.00000E+01
 -1       126-1.92593E+01 1.50000E+01 1.00000E+01
 -1       127-1.62963E+01 1.50000E+01 1.00000E+01
 -1       128-1.33333E+01 1.50000E+01 1.00000E+01
 -1       129-1.03704E+01 1.50000E+01 1.00000E+01
 -1       130-7.40741E+00 1.50000E+01 1.00000E+01
 -1       131-4.44444E+00 1.50000E+01 1.00000E+01
 -1       132-1.48148E+00 1.50000E+01 1.00000E+01
 -1       133 1.48148E+00 1.50000E+01 1.00000E+01
 -1       134 4.44444E+00 1.50000E+01 1.00000E+01
 -1       135 7.40741E+00 1.50000E+01 1.00000E+01
 -1       136 1.03704E+01 1.50000E+01 1.00000E+01
 -1       137 1.33333E+01 1.50000E+01 1.00000E+01
 -1       138 1.62963E+01 1.50000E+01 1.00000E+01
 -1       139 1.92593E+01 1.50000E+01 1.00000E+01
 -1       140 2.22222E+01 1.50000E+01 1.00000E+01
 -1       141 2.51852E+01 1.50000E+01 1.00000E+01
 -1       142 2.81481E+01 1.50000E+01 1.00000E+01
 -1       143 3.11111E+01 1.50000E+01 1.00000E+01
 -1       144 3.40741E+01 1.50000E+01 1.00000E+01
 -1       145 3.70370E+01 1.50000E+01 1.00000E+01
 -1       146-3.85185E+01 1.50000E+01 1.00000E+01
 -1       147-3.55556E+01 1.50000E+01 1.00000E+01
 -1       148-3.25926E+01 1.50000E+01 1.00000E+01
 -1       149-2.96296E+01 1.50000E+01 1.00000E+01
 -1       150-2.66667E+01 1.50000E+01 1.00000E+01
 -1       151-2.37037E+01 1.50000E+01 1.00000E+01
 -1       152-2.07407E+01 1.50000E+01 1.00000E+01
 -1       153-1.77778E+01 1.50000E+01 1.00000E+01
 -1       154-1.48148E+01 1.50000E+01 1.00000E+01
 -1       155-1.18519E+01 1.50000E+01 1.00000E+01
 -1       156-8.88889E+00 1.50000E+01 1.00000E+01
 -1       157-5.92593E+00 1.50000E+01 1.00000E+01
 -1       158-2.96296E+00 1.50000E+01 1.00000E+01
 -1       159-9.23706E-14 1.50000E+01 1.00000E+01
 -1       160 2.96296E+00 1.50000E+01 1.00000E+01
 -1       161 5.92593E+00 1.50000E+01 1.00000E+01
 -1       162 8.88889E+00 1.50000E+01 1.00000E+01
 -1       163 1.18519E+01 1.50000E+01 1.00000E+01
 -1       164 1.48148E+01 1.50000E+01 1.00000E+01
 -1       165 1.77778E+01 1.50000E+01 1.00000E+01
 -1       166 2.07407E+01 1.50000E+01 1.00000E+01
 -1       167 2.37037E+01 1.50000E+01 1.00000E+01
 -1       168 2.66667E+01 1.50000E+01 1.00000E+01
 -1       169 2.96296E+01 1.50000E+01 1.00000E+01
 -1       170 3.25926E+01 1.50000E+01 1.00000E+01
 -1       171 3.55556E+01 1.50000E+01 1.00000E+01
 -1       172 3.85185E+01 1.50000E+01 1.00000E+01
 -1       173 4.00000E+01 1.50000E+01 7.50000E+00
 -1       174 4.00000E+01 1.50000E+01 5.00000E+00
 -1       175 4.00000E+01 1.50000E+01 2.50000E+00
 -1       176 4.00000E+01 1.50000E+01 8.75000E+00
 -1       177 4.00000E+01 1.50000E+01 6.25000E+00
 -1       178 4.00000E+01 1.50000E+01 3.75000E+00
 -1       179 4.00000E+01 1.50000E+01 1.25000E+00
 -1       180 3.70477E+01 1.50000E+01-2.77556E-16
 -1       181 3.40954E+01 1.50000E+01-2.77556E-16
 -1       182 3.11432E+01 1.50000E+01-2.77556E-16
 -1       183 2.81909E+01 1.50000E+01-2.77556E-16
 -1       184 2.52386E+01 1.50000E+01-2.77556E-16
 -1       185 2.22863E+01 1.50000E+01-2.77556E-16
 -1       186 1.93341E+01 1.50000E+01-2.77556E-16
 -1       187 1.63818E+01 1.50000E+01-2.77556E-16
 -1       188 1.34295E+01 1.50000E+01-2.77556E-16
 -1       189 3.85239E+01 1.50000E+01-2.77556E-16
 -1       190 3.55716E+01 1.50000E+01-2.77556E-16
 -1       191 3.26193E+01 1.50000E+01-2.77556E-16
 -1       192 2.96670E+01 1.50000E+01-2.77556E-16
 -1       193 2.67148E+01 1.50000E+01-2.77556E-16
 -1       194 2.37625E+01 1.50000E+01-2.77556E-16
 -1       195 2.08102E+01 1.50000E+01-2.77556E-16
 -1       196 1.78579E+01 1.50000E+01-2.77556E-16
 -1       197 1.49056E+01 1.50000E+01-2.77556E-16
 -1       198 1.19534E+01 1.50000E+01-2.77556E-16
 -1       199 1.01186E+01 1.50000E+01 1.51612E-01
 -1       200 1.00093E+01 1.50000E+01 3.23848E-01
 -1       201 1.03403E+01 1.50000E+01 1.91117E-02
 -1       202 9.17052E+00 1.50000E+01 2.75803E+00
 -1       203 7.36747E+00 1.50000E+01 4.40398E+00
 -1       204 9.71760E+00 1.50000E+01 1.65658E+00
 -1       205 8.37100E+00 1.50000E+01 3.69274E+00
 -1       206 6.22077E+00 1.50000E+01 4.84868E+00
 -1       207 2.50000E+00 1.50000E+01 5.00000E+00
 -1       208 1.19904E-14 1.50000E+01 5.00000E+00
 -1       209-2.50000E+00 1.50000E+01 5.00000E+00
 -1       210 3.75000E+00 1.50000E+01 5.00000E+00
 -1       211 1.25000E+00 1.50000E+01 5.00000E+00
 -1       212-1.25000E+00 1.50000E+01 5.00000E+00
 -1       213-3.75000E+00 1.50000E+01 5.00000E+00
 -1       214 1.04772E+01 1.20110E+01-2.77556E-16
 -1       215 1.04772E+01 9.00004E+00-2.77556E-16
 -1       216 1.04772E+01 6.00724E+00-2.77556E-16
 -1       217 1.04772E+01 2.99994E+00-2.77556E-16
 -1       218 1.04772E+01 1.74738E-03-2.77556E-16
 -1       219 1.04772E+01-3.00448E+00-2.77556E-16
 -1       220 1.04772E+01-6.00290E+00-2.77556E-16
 -1       221 1.04772E+01-9.00000E+00-2.77556E-16
 -1       222 1.04772E+01-1.20232E+01-2.77556E-16
 -1       223 1.04772E+01 1.35026E+01-2.77556E-16
 -1       224 1.04772E+01 1.05004E+01-2.77556E-16
 -1       225 1.04772E+01 7.49955E+00-2.77556E-16
 -1       226 1.04772E+01 4.50014E+00-2.77556E-16
 -1       227 1.04772E+01 1.49849E+00-2.77556E-16
 -1       228 1.04772E+01-1.50102E+00-2.77556E-16
 -1       229 1.04772E+01-4.49868E+00-2.77556E-16
 -1       230 1.04772E+01-7.49979E+00-2.77556E-16
 -1       231 1.04772E+01-1.05017E+01-2.77556E-16
 -1       232 1.04772E+01-1.34998E+01-2.77556E-16
 -1       233 1.01597E+01-1.50000E+01 1.13786E-01
 -1       234 1.03364E+01-1.50000E+01 2.02376E-02
 -1       235 1.00104E+01-1.50000E+01 3.20782E-01
 -1       236 9.97930E+00-1.20158E+01 4.54545E-01
 -1       237 9.97930E+00-9.00000E+00 4.54545E-01
 -1       238 9.97930E+00-5.99938E+00 4.54545E-01
 -1       239 9.97930E+00-2.99936E+00 4.54545E-01
 -1       240 9.97930E+00 1.50860E-03 4.54545E-01
 -1       241 9.97930E+00 3.00135E+00 4.54545E-01
 -1       242 9.97930E+00 5.99850E+00 4.54545E-01
 -1       243 9.97930E+00 9.00000E+00 4.54545E-01
 -1       244 9.97930E+00 1.20032E+01 4.54545E-01
 -1       245 9.97930E+00-1.35038E+01 4.54545E-01
 -1       246 9.97930E+00-1.05004E+01 4.54545E-01
 -1       247 9.97930E+00-7.50020E+00 4.54545E-01
 -1       248 9.97930E+00-4.50057E+00 4.54545E-01
 -1       249 9.97930E+00-1.50217E+00 4.54545E-01
 -1       250 9.97930E+00 1.49795E+00 4.54545E-01
 -1       251 9.97930E+00 4.50173E+00 4.54545E-01
 -1       252 9.97930E+00 7.50140E+00 4.54545E-01
 -1       253 9.97930E+00 1.05011E+01 4.54545E-01
 -1       254 9.97930E+00 1.35056E+01 4.54545E-01
 -1       255 5.00000E+00-1.20000E+01 5.00000E+00
 -1       256 5.00000E+00-9.00000E+00 5.00000E+00
 -1       257 5.00000E+00-6.00000E+00 5.00000E+00
 -1       258 5.00000E+00-3.00000E+00 5.00000E+00
 -1       259 5.00000E+00 0.00000E+00 5.00000E+00
 -1       260 5.00000E+00 3.00000E+00 5.00000E+00
 -1       261 5.00000E+00 6.00000E+00 5.00000E+00
 -1       262 5.00000E+00 9.00000E+00 5.00000E+00
 -1       263 5.00000E+00 1.20000E+01 5.00000E+00
 -1       264 5.00000E+00-1.35000E+01 5.00000E+00
 -1       265 5.00000E+00-1.05000E+01 5.00000E+00
 -1       266 5.00000E+00-7.50000E+00 5.00000E+00
 -1       267 5.00000E+00-4.50000E+00 5.00000E+00
 -1       268 5.00000E+00-1.50000E+00 5.00000E+00
 -1       269 5.00000E+00 1.50000E+00 5.00000E+00
 -1       270 5.00000E+00 4.50000E+00 5.00000E+00
 -1       271 5.00000E+00 7.50000E+00 5.00000E+00
 -1       272 5.00000E+00 1.05000E+01 5.00000E+00
 -1       273 5.00000E+00 1.35000E+01 5.00000E+00
 -1       274 7.36747E+00-1.50000E+01 4.40398E+00
 -1       275 9.17052E+00-1.50000E+01 2.75803E+00
 -1       276 6.22067E+00-1.50000E+01 4.84871E+00
 -1       277 8.37100E+00-1.50000E+01 3.69274E+00
 -1       278 9.71760E+00-1.50000E+01 1.65656E+00
 -1       279-2.50000E+00-1.50000E+01 5.00000E+00
 -1       280-1.19904E-14-1.50000E+01 5.00000E+00
 -1       281 2.50000E+00-1.50000E+01 5.00000E+00
 -1       282-3.75000E+00-1.50000E+01 5.00000E+00
 -1       283-1.25000E+00-1.50000E+01 5.00000E+00
 -1       284 1.25000E+00-1.50000E+01 5.00000E+00
 -1       285 3.75000E+00-1.50000E+01 5.00000E+00
 -1       286 1.34295E+01-1.50000E+01-2.77556E-16
 -1       287 1.63818E+01-1.50000E+01-2.77556E-16
 -1       288 1.93341E+01-1.50000E+01-2.77556E-16
 -1       289 2.22863E+01-1.50000E+01-2.77556E-16
 -1       290 2.52386E+01-1.50000E+01-2.77556E-16
 -1       291 2.81909E+01-1.50000E+01-2.77556E-16
 -1       292 3.11432E+01-1.50000E+01-2.77556E-16
 -1       293 3.40954E+01-1.50000E+01-2.77556E-16
 -1       294 3.70477E+01-1.50000E+01-2.77556E-16
 -1       295 1.19534E+01-1.50000E+01-2.77556E-16
 -1       296 1.49056E+01-1.50000E+01-2.77556E-16
 -1       297 1.78579E+01-1.50000E+01-2.77556E-16
 -1       298 2.08102E+01-1.50000E+01-2.77556E-16
 -1       299 2.37625E+01-1.50000E+01-2.77556E-16
 -1       300 2.67148E+01-1.50000E+01-2.77556E-16
 -1       301 2.96670E+01-1.50000E+01-2.77556E-16
 -1       302 3.26193E+01-1.50000E+01-2.77556E-16
 -1       303 3.55716E+01-1.50000E+01-2.77556E-16
 -1       304 3.85239E+01-1.50000E+01-2.77556E-16
 -1       305 4.00000E+01-1.50000E+01 2.50000E+00
 -1       306 4.00000E+01-1.50000E+01 5.00000E+00
 -1       307 4.00000E+01-1.50000E+01 7.50000E+00
 -1       308 4.00000E+01-1.50000E+01 1.25000E+00
 -1       309 4.00000E+01-1.50000E+01 3.75000E+00
 -1       310 4.00000E+01-1.50000E+01 6.25000E+00
 -1       311 4.00000E+01-1.50000E+01 8.75000E+00
 -1       312 3.70370E+01-1.50000E+01 1.00000E+01
 -1       313 3.40741E+01-1.50000E+01 1.00000E+01
 -1       314 3.11111E+01-1.50000E+01 1.00000E+01
 -1       315 2.81481E+01-1.50000E+01 1.00000E+01
 -1       316 2.51852E+01-1.50000E+01 1.00000E+01
 -1       317 2.22222E+01-1.50000E+01 1.00000E+01
 -1       318 1.92593E+01-1.50000E+01 1.00000E+01
 -1       319 1.62963E+01-1.50000E+01 1.00000E+01
 -1       320 1.33333E+01-1.50000E+01 1.00000E+01
 -1       321 1.03704E+01-1.50000E+01 1.00000E+01
 -1       322 7.40741E+00-1.50000E+01 1.00000E+01
 -1       323 4.44444E+00-1.50000E+01 1.00000E+01
 -1       324 1.48148E+00-1.50000E+01 1.00000E+01
 -1       325-1.48148E+00-1.50000E+01 1.00000E+01
 -1       326-4.44444E+00-1.50000E+01 1.00000E+01
 -1       327-7.40741E+00-1.50000E+01 1.00000E+01
 -1       328-1.03704E+01-1.50000E+01 1.00000E+01
 -1       329-1.33333E+01-1.50000E+01 1.00000E+01
 -1       330-1.62963E+01-1.50000E+01 1.00000E+01
 -1       331-1.92593E+01-1.50000E+01 1.00000E+01
 -1       332-2.22222E+01-1.50000E+01 1.00000E+01
 -1       333-2.51852E+01-1.50000E+01 1.00000E+01
 -1       334-2.81481E+01-1.50000E+01 1.00000E+01
 -1       335-3.11111E+01-1.50000E+01 1.00000E+01
 -1       336-3.40741E+01-1.50000E+01 1.00000E+01
 -1       337-3.70370E+01-1.50000E+01 1.00000E+01
 -1       338 3.85185E+01-1.50000E+01 1.00000E+01
 -1       339 3.55556E+01-1.50000E+01 1.00000E+01
 -1       340 3.25926E+01-1.50000E+01 1.00000E+01
 -1       341 2.96296E+01-1.50000E+01 1.00000E+01
 -1       342 2.66667E+01-1.50000E+01 1.00000E+01
 -1       343 2.37037E+01-1.50000E+01 1.00000E+01
 -1       344 2.07407E+01-1.50000E+01 1.00000E+01
 -1       345 1.77778E+01-1.50000E+01 1.00000E+01
 -1       346 1.48148E+01-1.50000E+01 1.00000E+01
 -1       347 1.18519E+01-1.50000E+01 1.00000E+01
 -1       348 8.88889E+00-1.50000E+01 1.00000E+01
 -1       349 5.92593E+00-1.50000E+01 1.00000E+01
 -1       350 2.96296E+00-1.50000E+01 1.00000E+01
 -1       351 9.23706E-14-1.50000E+01 1.00000E+01
 -1       352-2.96296E+00-1.50000E+01 1.00000E+01
 -1       353-5.92593E+00-1.50000E+01 1.00000E+01
 -1       354-8.88889E+00-1.50000E+01 1.00000E+01
 -1       355-1.18519E+01-1.50000E+01 1.00000E+01
 -1       356-1.48148E+01-1.50000E+01 1.00000E+01
 -1       357-1.77778E+01-1.50000E+01 1.00000E+01
 -1       358-2.07407E+01-1.50000E+01 1.00000E+01
 -1       359-2.37037E+01-1.50000E+01 1.00000E+01
 -1       360-2.66667E+01-1.50000E+01 1.00000E+01
 -1       361-2.96296E+01-1.50000E+01 1.00000E+01
 -1       362-3.25926E+01-1.50000E+01 1.00000E+01
 -1       363-3.55556E+01-1.50000E+01 1.00000E+01
 -1       364-3.85185E+01-1.50000E+01 1.00000E+01
 -1       365-4.00000E+01-1.50000E+01 7.50000E+00
 -1       366-4.00000E+01-1.50000E+01 5.00000E+00
 -1       367-4.00000E+01-1.50000E+01 2.50000E+00
 -1       368-4.00000E+01-1.50000E+01 8.75000E+00
 -1       369-4.00000E+01-1.50000E+01 6.25000E+00
 -1       370-4.00000E+01-1.50000E+01 3.75000E+00
 -1       371-4.00000E+01-1.50000E+01 1.25000E+00
 -1       372-3.70477E+01-1.50000E+01-2.77556E-16
 -1       373-3.40954E+01-1.50000E+01-2.77556E-16
 -1       374-3.11432E+01-1.50000E+01-2.77556E-16
 -1       375-2.81909E+01-1.50000E+01-2.77556E-16
 -1       376-2.52386E+01-1.50000E+01-2.77556E-16
 -1       377-2.22863E+01-1.50000E+01-2.77556E-16
 -1       378-1.93341E+01-1.50000E+01-2.77556E-16
 -1       379-1.63818E+01-1.50000E+01-2.77556E-16
 -1       380-1.34295E+01-1.50000E+01-2.77556E-16
 -1       381-3.85239E+01-1.50000E+01-2.77556E-16
 -1       382-3.55716E+01-1.50000E+01-2.77556E-16
 -1       383-3.26193E+01-1.50000E+01-2.77556E-16
 -1       384-2.96670E+01-1.50000E+01-2.77556E-16
 -1       385-2.67148E+01-1.50000E+01-2.77556E-16
 -1       386-2.37625E+01-1.50000E+01-2.77556E-16
 -1       387-2.08102E+01-1.50000E+01-2.77556E-16
 -1       388-1.78579E+01-1.50000E+01-2.77556E-16
 -1       389-1.49056E+01-1.50000E+01-2.77556E-16
 -1       390-1.19534E+01-1.50000E+01-2.77556E-16
 -1       391 4.00000E+01-1.20000E+01-2.77556E-16
 -1       392 4.00000E+01-9.00000E+00-2.77556E-16
 -1       393 4.00000E+01-6.00000E+00-2.77556E-16
 -1       394 4.00000E+01-3.00000E+00-2.77556E-16
 -1       395 4.00000E+01 0.00000E+00-2.77556E-16
 -1       396 4.00000E+01 3.00000E+00-2.77556E-16
 -1       397 4.00000E+01 6.00000E+00-2.77556E-16
 -1       398 4.00000E+01 9.00000E+00-2.77556E-16
 -1       399 4.00000E+01 1.20000E+01-2.77556E-16
 -1       400 4.00000E+01-1.35000E+01-2.77556E-16
 -1       401 4.00000E+01-1.05000E+01-2.77556E-16
 -1       402 4.00000E+01-7.50000E+00-2.77556E-16
 -1       403 4.00000E+01-4.50000E+00-2.77556E-16
 -1       404 4.00000E+01-1.50000E+00-2.77556E-16
 -1       405 4.00000E+01 1.50000E+00-2.77556E-16
 -1       406 4.00000E+01 4.50000E+00-2.77556E-16
 -1       407 4.00000E+01 7.50000E+00-2.77556E-16
 -1       408 4.00000E+01 1.05000E+01-2.77556E-16
 -1       409 4.00000E+01 1.35000E+01-2.77556E-16
 -1       410-4.00000E+01 1.20000E+01 1.00000E+01
 -1       411-4.00000E+01 9.00000E+00 1.00000E+01
 -1       412-4.00000E+01 6.00000E+00 1.00000E+01
 -1       413-4.00000E+01 3.00000E+00 1.00000E+01
 -1       414-4.00000E+01 0.00000E+00 1.00000E+01
 -1       415-4.00000E+01-3.00000E+00 1.00000E+01
 -1       416-4.00000E+01-6.00000E+00 1.00000E+01
 -1       417-4.00000E+01-9.00000E+00 1.00000E+01
 -1       418-4.00000E+01-1.20000E+01 1.00000E+01
 -1       419-4.00000E+01 1.35000E+01 1.00000E+01
 -1       420-4.00000E+01 1.05000E+01 1.00000E+01
 -1       421-4.00000E+01 7.50000E+00 1.00000E+01
 -1       422-4.00000E+01 4.50000E+00 1.00000E+01
 -1       423-4.00000E+01 1.50000E+00 1.00000E+01
 -1       424-4.00000E+01-1.50000E+00 1.00000E+01
 -1       425-4.00000E+01-4.50000E+00 1.00000E+01
 -1       426-4.00000E+01-7.50000E+00 1.00000E+01
 -1       427-4.00000E+01-1.05000E+01 1.00000E+01
 -1       428-4.00000E+01-1.35000E+01 1.00000E+01
 -1       429-4.00000E+01-1.20000E+01-2.77556E-16
 -1       430-4.00000E+01-9.00000E+00-2.77556E-16
 -1       431-4.00000E+01-6.00000E+00-2.77556E-16
 -1       432-4.00000E+01-3.00000E+00-2.77556E-16
 -1       433-4.00000E+01 0.00000E+00-2.77556E-16
 -1       434-4.00000E+01 3.00000E+00-2.77556E-16
 -1       435-4.00000E+01 6.00000E+00-2.77556E-16
 -1       436-4.00000E+01 9.00000E+00-2.77556E-16
 -1       437-4.00000E+01 1.20000E+01-2.77556E-16
 -1       438-4.00000E+01-1.35000E+01-2.77556E-16
 -1       439-4.00000E+01-1.05000E+01-2.77556E-16
 -1       440-4.00000E+01-7.50000E+00-2.77556E-16
 -1       441-4.00000E+01-4.50000E+00-2.77556E-16
 -1       442-4.00000E+01-1.50000E+00-2.77556E-16
 -1       443-4.00000E+01 1.50000E+00-2.77556E-16
 -1       444-4.00000E+01 4.50000E+00-2.77556E-16
 -1       445-4.00000E+01 7.50000E+00-2.77556E-16
 -1       446-4.00000E+01 1.05000E+01-2.77556E-16
 -1       447-4.00000E+01 1.35000E+01-2.77556E-16
 -1       448 4.00000E+01-1.20000E+01 1.00000E+01
 -1       449 4.00000E+01-9.00000E+00 1.00000E+01
 -1       450 4.00000E+01-6.00000E+00 1.00000E+01
 -1       451 4.00000E+01-3.00000E+00 1.00000E+01
 -1       452 4.00000E+01 0.00000E+00 1.00000E+01
 -1       453 4.00000E+01 3.00000E+00 1.00000E+01
 -1       454 4.00000E+01 6.00000E+00 1.00000E+01
 -1       455 4.00000E+01 9.00000E+00 1.00000E+01
 -1       456 4.00000E+01 1.20000E+01 1.00000E+01
 -1       457 4.00000E+01-1.35000E+01 1.00000E+01
 -1       458 4.00000E+01-1.05000E+01 1.00000E+01
 -1       459 4.00000E+01-7.50000E+00 1.00000E+01
 -1       460 4.00000E+01-4.50000E+00 1.00000E+01
 -1       461 4.00000E+01-1.50000E+00 1.00000E+01
 -1       462 4.00000E+01 1.50000E+00 1.00000E+01
 -1       463 4.00000E+01 4.50000E+00 1.00000E+01
 -1       464 4.00000E+01 7.50000E+00 1.00000E+01
 -1       465 4.00000E+01 1.05000E+01 1.00000E+01
 -1       466 4.00000E+01 1.35000E+01 1.00000E+01
 -1       467-1.00294E+01-1.35000E+01 2.77589E-01
 -1       468-1.02964E+01-1.35000E+01 3.38256E-02
 -1       469-1.02964E+01 1.35000E+01 3.38256E-02
 -1       470-1.00294E+01 1.35000E+01 2.77589E-01
 -1       471-1.01401E+01-1.20000E+01 1.30726E-01
 -1       472-1.01401E+01-1.05000E+01 1.30726E-01
 -1       473-1.01401E+01-7.50000E+00 1.30726E-01
 -1       474-1.01401E+01-9.00000E+00 1.30726E-01
 -1       475-1.01401E+01-3.00000E+00 1.30726E-01
 -1       476-1.01401E+01-4.50000E+00 1.30726E-01
 -1       477-1.01401E+01-6.00000E+00 1.30726E-01
 -1       478-1.01401E+01 0.00000E+00 1.30726E-01
 -1       479-1.01401E+01-1.50000E+00 1.30726E-01
 -1       480-1.01401E+01 3.00000E+00 1.30726E-01
 -1       481-1.01401E+01 1.50000E+00 1.30726E-01
 -1       482-1.01401E+01 6.00000E+00 1.30726E-01
 -1       483-1.01401E+01 4.50000E+00 1.30726E-01
 -1       484-1.01401E+01 7.50000E+00 1.30726E-01
 -1       485-1.01401E+01 1.05000E+01 1.30726E-01
 -1       486-1.01401E+01 9.00000E+00 1.30726E-01
 -1       487-1.01401E+01 1.20000E+01 1.30726E-01
 -1       488-8.37100E+00-1.28912E+01 3.69274E+00
 -1       489-8.37100E+00 1.28912E+01 3.69274E+00
 -1       490-9.07901E+00 4.50000E+00 2.89165E+00
 -1       491-7.50886E+00-1.50000E+00 4.32500E+00
 -1       492-9.07901E+00-7.50000E+00 2.89165E+00
 -1       493-7.50886E+00 7.50000E+00 4.32500E+00
 -1       494-7.50554E+00-4.49357E+00 4.32693E+00
 -1       495-7.50886E+00 1.50000E+00 4.32500E+00
 -1       496-7.41621E+00 1.03214E+01 4.37743E+00
 -1       497-9.13965E+00-1.03214E+01 2.80416E+00
 -1       498-9.29638E+00 1.05000E+01 2.55755E+00
 -1       499-7.15638E+00-1.05000E+01 4.51110E+00
 -1       500-9.32726E+00-4.50000E+00 2.50495E+00
 -1       501-9.32835E+00 1.50000E+00 2.50308E+00
 -1       502-7.09923E+00-7.50000E+00 4.53798E+00
 -1       503-7.09923E+00 4.50000E+00 4.53798E+00
 -1       504-9.32835E+00-1.50000E+00 2.50308E+00
 -1       505-9.32835E+00 7.50000E+00 2.50308E+00
 -1       506-9.59558E+00 1.33559E+01 1.96994E+00
 -1       507-6.54106E+00-1.33616E+01 4.75659E+00
 -1       508-6.68607E+00 1.32872E+01 4.70714E+00
 -1       509-9.53309E+00-1.32824E+01 2.10975E+00
 -1       510-9.82766E+00-1.26412E+01 1.30141E+00
 -1       511-9.82766E+00-1.41412E+01 1.30141E+00
 -1       512-9.36386E+00-1.41412E+01 2.44063E+00
 -1       513-9.84703E+00 1.41780E+01 1.22733E+00
 -1       514-9.84703E+00 1.26780E+01 1.22733E+00
 -1       515-9.40073E+00 1.41780E+01 2.37352E+00
 -1       516-6.96220E+00-1.41808E+01 4.59889E+00
 -1       517-5.78008E+00-1.41808E+01 4.93877E+00
 -1       518-5.78008E+00-1.26808E+01 4.93877E+00
 -1       519-5.85566E+00 1.26436E+01 4.92624E+00
 -1       520-5.85566E+00 1.41436E+01 4.92624E+00
 -1       521-7.03243E+00 1.41436E+01 4.56828E+00
 -1       522-9.75555E+00 1.12500E+01 1.54427E+00
 -1       523-9.75555E+00 9.75000E+00 1.54427E+00
 -1       524-9.45568E+00 1.19280E+01 2.26869E+00
 -1       525-9.76521E+00 8.25000E+00 1.51420E+00
 -1       526-9.76521E+00 6.75000E+00 1.51420E+00
 -1       527-9.31245E+00 9.00000E+00 2.53037E+00
 -1       528-9.69021E+00 5.25000E+00 1.73260E+00
 -1       529-9.69021E+00 3.75000E+00 1.73260E+00
 -1       530-9.20817E+00 6.00000E+00 2.70024E+00
 -1       531-9.76521E+00 2.25000E+00 1.51420E+00
 -1       532-9.76521E+00 7.50000E-01 1.51420E+00
 -1       533-9.20817E+00 3.00000E+00 2.70024E+00
 -1       534-9.76521E+00-7.50000E-01 1.51420E+00
 -1       535-9.76521E+00-2.25000E+00 1.51420E+00
 -1       536-9.32835E+00 0.00000E+00 2.50308E+00
 -1       537-9.76488E+00-3.75000E+00 1.51524E+00
 -1       538-9.76488E+00-5.25000E+00 1.51524E+00
 -1       539-9.32781E+00-3.00000E+00 2.50401E+00
 -1       540-9.69021E+00-6.75000E+00 1.73260E+00
 -1       541-9.69021E+00-8.25000E+00 1.73260E+00
 -1       542-9.20758E+00-6.00000E+00 2.70116E+00
 -1       543-9.70839E+00-9.66072E+00 1.68257E+00
 -1       544-9.70839E+00-1.11607E+01 1.68257E+00
 -1       545-9.10956E+00-8.91072E+00 2.84807E+00
 -1       546-9.35025E+00-1.18019E+01 2.46482E+00
 -1       547-8.79961E+00-1.39456E+01 3.25007E+00
 -1       548-7.89119E+00-1.39456E+01 4.07934E+00
 -1       549-9.03053E+00-1.30868E+01 2.95886E+00
 -1       550-7.51297E+00-1.31264E+01 4.32261E+00
 -1       551-6.10556E+00-1.12500E+01 4.87624E+00
 -1       552-6.10556E+00-9.75000E+00 4.87624E+00
 -1       553-6.85279E+00-1.19308E+01 4.64405E+00
 -1       554-6.07473E+00-8.25000E+00 4.88313E+00
 -1       555-6.07473E+00-6.75000E+00 4.88313E+00
 -1       556-7.12785E+00-9.00000E+00 4.52463E+00
 -1       557-6.29718E+00-5.24679E+00 4.82880E+00
 -1       558-6.29718E+00-3.74679E+00 4.82880E+00
 -1       559-7.30480E+00-5.99679E+00 4.43711E+00
 -1       560-6.29904E+00-2.25000E+00 4.82830E+00
 -1       561-6.29904E+00-7.50000E-01 4.82830E+00
 -1       562-7.50720E+00-2.99679E+00 4.32596E+00
 -1       563-6.29904E+00 7.50000E-01 4.82830E+00
 -1       564-6.29904E+00 2.25000E+00 4.82830E+00
 -1       565-7.50886E+00 0.00000E+00 4.32500E+00
 -1       566-6.07473E+00 3.75000E+00 4.88313E+00
 -1       567-6.07473E+00 5.25000E+00 4.88313E+00
 -1       568-7.30650E+00 3.00000E+00 4.43622E+00
 -1       569-6.29904E+00 6.75000E+00 4.82830E+00
 -1       570-6.29904E+00 8.25000E+00 4.82830E+00
 -1       571-7.30650E+00 6.00000E+00 4.43622E+00
 -1       572-6.24757E+00 9.66072E+00 4.84186E+00
 -1       573-6.24757E+00 1.11607E+01 4.84186E+00
 -1       574-7.46268E+00 8.91072E+00 4.35146E+00
 -1       575-7.05776E+00 1.18043E+01 4.55693E+00
 -1       576-7.89119E+00 1.39456E+01 4.07934E+00
 -1       577-8.79961E+00 1.39456E+01 3.25007E+00
 -1       578-7.57890E+00 1.30892E+01 4.28360E+00
 -1       579-9.07537E+00 1.31235E+01 2.89679E+00
 -1       580-8.78152E+00-1.16063E+01 3.27111E+00
 -1       581-8.26166E+00-1.04107E+01 3.78967E+00
 -1       582-7.79382E+00-1.16956E+01 4.14664E+00
 -1       583-7.91379E+00 1.16063E+01 4.06323E+00