    1C
    1UUSER                                                              
    1UDATE              12.june.2025                                    
    1UTIME              18:00:41                                        
    1UHOST                                                              
    1UPGM               CalculiX                                        
    1UVERSION           Version 2.22                             
    1UCOMPILETIME       Mon Aug  5 19:15:25 CEST 2024                    
    1UDIR                                                               
    1UDBN                                                               
    1UMAT    1STEEL                                                     
    2C                          4681                                     1
 -1         1-3.49250E+01 6.35000E+01-9.52500E+00
 -1         2-4.12750E+01 5.71500E+01-9.52500E+00
 -1         3-4.12750E+01 5.71500E+01 9.52500E+00
 -1         4-3.49250E+01 6.35000E+01 9.52500E+00
 -1         5-4.12750E+01-5.71500E+01-9.52500E+00
 -1         6-3.49250E+01-6.35000E+01-9.52500E+00
 -1         7-3.49250E+01-6.35000E+01 9.52500E+00
 -1         8-4.12750E+01-5.71500E+01 9.52500E+00
 -1         9 4.12750E+01 5.71500E+01-9.52500E+00
 -1        10 3.49250E+01 6.35000E+01-9.52500E+00
 -1        11 3.49250E+01 6.35000E+01 9.52500E+00
 -1        12 4.12750E+01 5.71500E+01 9.52500E+00
 -1        13 3.49250E+01-6.35000E+01-9.52500E+00
 -1        14 4.12750E+01-5.71500E+01-9.52500E+00
 -1        15 4.12750E+01-5.71500E+01 9.52500E+00
 -1        16 3.49250E+01-6.35000E+01 9.52500E+00
 -1        17-4.12750E+01 7.93750E+00 9.52500E+00
 -1        18-4.12750E+01-7.93750E+00 9.52500E+00
 -1        19 4.12750E+01 2.54000E+01 9.52500E+00
 -1        20 4.12750E+01 2.54000E+01 2.70002E+01
 -1        21 4.12750E+01-2.54000E+01 2.70002E+01
 -1        22 4.12750E+01-2.54000E+01 9.52500E+00
 -1        23 2.22250E+01 7.93750E+00 9.52500E+00
 -1        24 2.22250E+01 2.54000E+01 9.52500E+00
 -1        25 2.22250E+01-2.54000E+01 9.52500E+00
 -1        26 2.22250E+01-7.93750E+00 9.52500E+00
 -1        27 2.22250E+01 7.93750E+00 2.70002E+01
 -1        28 2.22250E+01 2.54000E+01 2.70002E+01
 -1        29 5.69254E+01 7.93750E+00 6.19245E+01
 -1        30 5.69254E+01 2.54000E+01 6.19245E+01
 -1        31 2.22250E+01-7.93750E+00 2.70002E+01
 -1        32 5.69254E+01-7.93750E+00 6.19245E+01
 -1        33 2.22250E+01-2.54000E+01 2.70002E+01
 -1        34 5.69254E+01-2.54000E+01 6.19245E+01
 -1        35 6.03250E+01 0.00000E+00 3.81000E+01
 -1        36 6.03250E+01 0.00000E+00 6.66750E+01
 -1        37 6.03250E+01 6.22121E-15 4.28752E+01
 -1        38 8.57250E+01 2.54000E+01 4.28752E+01
 -1        39 8.57250E+01 2.54000E+01 6.19252E+01
 -1        40 6.03250E+01 6.22121E-15 6.19252E+01
 -1        41 8.57250E+01-2.54000E+01 6.19252E+01
 -1        42 8.57250E+01-2.54000E+01 4.28752E+01
 -1        43 5.71500E+01-2.54000E+01 4.28752E+01
 -1        44 5.71500E+01-2.54000E+01 6.19252E+01
 -1        45 5.71500E+01 2.54000E+01 6.19252E+01
 -1        46 5.71500E+01 2.54000E+01 4.28752E+01
 -1        47-3.94151E+01 6.16401E+01-9.52500E+00
 -1        48-3.73550E+01 6.30166E+01-9.52500E+00
 -1        49-4.07916E+01 5.95800E+01-9.52500E+00
 -1        50-4.12750E+01 5.71500E+01-4.94049E-15
 -1        51-4.12750E+01 5.71500E+01-4.76250E+00
 -1        52-4.12750E+01 5.71500E+01 4.76250E+00
 -1        53-3.94151E+01 6.16401E+01 9.52500E+00
 -1        54-3.73550E+01 6.30166E+01 9.52500E+00
 -1        55-4.07916E+01 5.95800E+01 9.52500E+00
 -1        56-3.49250E+01 6.35000E+01-1.55154E-14
 -1        57-3.49250E+01 6.35000E+01-4.76250E+00
 -1        58-3.49250E+01 6.35000E+01 4.76250E+00
 -1        59-3.94151E+01-6.16401E+01-9.52500E+00
 -1        60-4.07916E+01-5.95800E+01-9.52500E+00
 -1        61-3.73550E+01-6.30166E+01-9.52500E+00
 -1        62-3.49250E+01-6.35000E+01 1.09218E-14
 -1        63-3.49250E+01-6.35000E+01-4.76250E+00
 -1        64-3.49250E+01-6.35000E+01 4.76250E+00
 -1        65-3.94151E+01-6.16401E+01 9.52500E+00
 -1        66-4.07916E+01-5.95800E+01 9.52500E+00
 -1        67-3.73550E+01-6.30166E+01 9.52500E+00
 -1        68-4.12750E+01-5.71500E+01-1.55154E-14
 -1        69-4.12750E+01-5.71500E+01-4.76250E+00
 -1        70-4.12750E+01-5.71500E+01 4.76250E+00
 -1        71 3.94151E+01 6.16401E+01-9.52500E+00
 -1        72 4.07916E+01 5.95800E+01-9.52500E+00
 -1        73 3.73550E+01 6.30166E+01-9.52500E+00
 -1        74 3.49250E+01 6.35000E+01 1.09218E-14
 -1        75 3.49250E+01 6.35000E+01-4.76250E+00
 -1        76 3.49250E+01 6.35000E+01 4.76250E+00
 -1        77 3.94151E+01 6.16401E+01 9.52500E+00
 -1        78 4.07916E+01 5.95800E+01 9.52500E+00
 -1        79 3.73550E+01 6.30166E+01 9.52500E+00
 -1        80 4.12750E+01 5.71500E+01-1.55154E-14
 -1        81 4.12750E+01 5.71500E+01-4.76250E+00
 -1        82 4.12750E+01 5.71500E+01 4.76250E+00
 -1        83 3.94151E+01-6.16401E+01-9.52500E+00
 -1        84 3.73550E+01-6.30166E+01-9.52500E+00
 -1        85 4.07916E+01-5.95800E+01-9.52500E+00
 -1        86 4.12750E+01-5.71500E+01-4.94049E-15
 -1        87 4.12750E+01-5.71500E+01-4.76250E+00
 -1        88 4.12750E+01-5.71500E+01 4.76250E+00
 -1        89 3.94151E+01-6.16401E+01 9.52500E+00
 -1        90 3.73550E+01-6.30166E+01 9.52500E+00
 -1        91 4.07916E+01-5.95800E+01 9.52500E+00
 -1        92 3.49250E+01-6.35000E+01-1.55154E-14
 -1        93 3.49250E+01-6.35000E+01-4.76250E+00
 -1        94 3.49250E+01-6.35000E+01 4.76250E+00
 -1        95-2.49464E+01 6.35000E+01-9.52500E+00
 -1        96-1.49679E+01 6.35000E+01-9.52500E+00
 -1        97-4.98929E+00 6.35000E+01-9.52500E+00
 -1        98 4.98929E+00 6.35000E+01-9.52500E+00
 -1        99 1.49679E+01 6.35000E+01-9.52500E+00
 -1       100 2.49464E+01 6.35000E+01-9.52500E+00
 -1       101-2.99357E+01 6.35000E+01-9.52500E+00
 -1       102-1.99571E+01 6.35000E+01-9.52500E+00
 -1       103-9.97857E+00 6.35000E+01-9.52500E+00
 -1       104 4.19248E-14 6.35000E+01-9.52500E+00
 -1       105 9.97857E+00 6.35000E+01-9.52500E+00
 -1       106 1.99571E+01 6.35000E+01-9.52500E+00
 -1       107 2.99357E+01 6.35000E+01-9.52500E+00
 -1       108 4.12750E+01-4.67591E+01-9.52500E+00
 -1       109 4.12750E+01-3.63682E+01-9.52500E+00
 -1       110 4.12750E+01-2.59773E+01-9.52500E+00
 -1       111 4.12750E+01-1.55864E+01-9.52500E+00
 -1       112 4.12750E+01-5.19545E+00-9.52500E+00
 -1       113 4.12750E+01 5.19545E+00-9.52500E+00
 -1       114 4.12750E+01 1.55864E+01-9.52500E+00
 -1       115 4.12750E+01 2.59773E+01-9.52500E+00
 -1       116 4.12750E+01 3.63682E+01-9.52500E+00
 -1       117 4.12750E+01 4.67591E+01-9.52500E+00
 -1       118 4.12750E+01-5.19545E+01-9.52500E+00
 -1       119 4.12750E+01-4.15636E+01-9.52500E+00
 -1       120 4.12750E+01-3.11727E+01-9.52500E+00
 -1       121 4.12750E+01-2.07818E+01-9.52500E+00
 -1       122 4.12750E+01-1.03909E+01-9.52500E+00
 -1       123 4.12750E+01-1.42109E-14-9.52500E+00
 -1       124 4.12750E+01 1.03909E+01-9.52500E+00
 -1       125 4.12750E+01 2.07818E+01-9.52500E+00
 -1       126 4.12750E+01 3.11727E+01-9.52500E+00
 -1       127 4.12750E+01 4.15636E+01-9.52500E+00
 -1       128 4.12750E+01 5.19545E+01-9.52500E+00
 -1       129-2.49464E+01-6.35000E+01-9.52500E+00
 -1       130-1.49679E+01-6.35000E+01-9.52500E+00
 -1       131-4.98929E+00-6.35000E+01-9.52500E+00
 -1       132 4.98929E+00-6.35000E+01-9.52500E+00
 -1       133 1.49679E+01-6.35000E+01-9.52500E+00
 -1       134 2.49464E+01-6.35000E+01-9.52500E+00
 -1       135-2.99357E+01-6.35000E+01-9.52500E+00
 -1       136-1.99571E+01-6.35000E+01-9.52500E+00
 -1       137-9.97857E+00-6.35000E+01-9.52500E+00
 -1       138 4.19248E-14-6.35000E+01-9.52500E+00
 -1       139 9.97857E+00-6.35000E+01-9.52500E+00
 -1       140 1.99571E+01-6.35000E+01-9.52500E+00
 -1       141 2.99357E+01-6.35000E+01-9.52500E+00
 -1       142-4.12750E+01-4.67591E+01-9.52500E+00
 -1       143-4.12750E+01-3.63682E+01-9.52500E+00
 -1       144-4.12750E+01-2.59773E+01-9.52500E+00
 -1       145-4.12750E+01-1.55864E+01-9.52500E+00
 -1       146-4.12750E+01-5.19545E+00-9.52500E+00
 -1       147-4.12750E+01 5.19545E+00-9.52500E+00
 -1       148-4.12750E+01 1.55864E+01-9.52500E+00
 -1       149-4.12750E+01 2.59773E+01-9.52500E+00
 -1       150-4.12750E+01 3.63682E+01-9.52500E+00
 -1       151-4.12750E+01 4.67591E+01-9.52500E+00
 -1       152-4.12750E+01-5.19545E+01-9.52500E+00
 -1       153-4.12750E+01-4.15636E+01-9.52500E+00
 -1       154-4.12750E+01-3.11727E+01-9.52500E+00
 -1       155-4.12750E+01-2.07818E+01-9.52500E+00
 -1       156-4.12750E+01-1.03909E+01-9.52500E+00
 -1       157-4.12750E+01-1.42109E-14-9.52500E+00
 -1       158-4.12750E+01 1.03909E+01-9.52500E+00
 -1       159-4.12750E+01 2.07818E+01-9.52500E+00
 -1       160-4.12750E+01 3.11727E+01-9.52500E+00
 -1       161-4.12750E+01 4.15636E+01-9.52500E+00
 -1       162-4.12750E+01 5.19545E+01-9.52500E+00
 -1       163-2.49464E+01 6.35000E+01 9.52500E+00
 -1       164-1.49679E+01 6.35000E+01 9.52500E+00
 -1       165-4.98929E+00 6.35000E+01 9.52500E+00
 -1       166 4.98929E+00 6.35000E+01 9.52500E+00
 -1       167 1.49679E+01 6.35000E+01 9.52500E+00
 -1       168 2.49464E+01 6.35000E+01 9.52500E+00
 -1       169-2.99357E+01 6.35000E+01 9.52500E+00
 -1       170-1.99571E+01 6.35000E+01 9.52500E+00
 -1       171-9.97857E+00 6.35000E+01 9.52500E+00
 -1       172 4.19248E-14 6.35000E+01 9.52500E+00
 -1       173 9.97857E+00 6.35000E+01 9.52500E+00
 -1       174 1.99571E+01 6.35000E+01 9.52500E+00
 -1       175 2.99357E+01 6.35000E+01 9.52500E+00
 -1       176-2.49464E+01-6.35000E+01 9.52500E+00
 -1       177-1.49679E+01-6.35000E+01 9.52500E+00
 -1       178-4.98929E+00-6.35000E+01 9.52500E+00
 -1       179 4.98929E+00-6.35000E+01 9.52500E+00
 -1       180 1.49679E+01-6.35000E+01 9.52500E+00
 -1       181 2.49464E+01-6.35000E+01 9.52500E+00
 -1       182-2.99357E+01-6.35000E+01 9.52500E+00
 -1       183-1.99571E+01-6.35000E+01 9.52500E+00
 -1       184-9.97857E+00-6.35000E+01 9.52500E+00
 -1       185 4.19248E-14-6.35000E+01 9.52500E+00
 -1       186 9.97857E+00-6.35000E+01 9.52500E+00
 -1       187 1.99571E+01-6.35000E+01 9.52500E+00
 -1       188 2.99357E+01-6.35000E+01 9.52500E+00
 -1       189-4.12750E+01 1.77800E+01 9.52500E+00
 -1       190-4.12750E+01 2.76225E+01 9.52500E+00
 -1       191-4.12750E+01 3.74650E+01 9.52500E+00
 -1       192-4.12750E+01 4.73075E+01 9.52500E+00
 -1       193-4.12750E+01 1.28588E+01 9.52500E+00
 -1       194-4.12750E+01 2.27013E+01 9.52500E+00
 -1       195-4.12750E+01 3.25438E+01 9.52500E+00
 -1       196-4.12750E+01 4.23862E+01 9.52500E+00
 -1       197-4.12750E+01 5.22287E+01 9.52500E+00
 -1       198-4.12750E+01-4.73075E+01 9.52500E+00
 -1       199-4.12750E+01-3.74650E+01 9.52500E+00
 -1       200-4.12750E+01-2.76225E+01 9.52500E+00
 -1       201-4.12750E+01-1.77800E+01 9.52500E+00
 -1       202-4.12750E+01-5.22287E+01 9.52500E+00
 -1       203-4.12750E+01-4.23862E+01 9.52500E+00
 -1       204-4.12750E+01-3.25438E+01 9.52500E+00
 -1       205-4.12750E+01-2.27013E+01 9.52500E+00
 -1       206-4.12750E+01-1.28588E+01 9.52500E+00
 -1       207-4.12750E+01-1.06581E-14 9.52500E+00
 -1       208-4.12750E+01-3.96875E+00 9.52500E+00
 -1       209-4.12750E+01 3.96875E+00 9.52500E+00
 -1       210 4.12750E+01 3.59833E+01 9.52500E+00
 -1       211 4.12750E+01 4.65667E+01 9.52500E+00
 -1       212 4.12750E+01 3.06917E+01 9.52500E+00
 -1       213 4.12750E+01 4.12750E+01 9.52500E+00
 -1       214 4.12750E+01 5.18583E+01 9.52500E+00
 -1       215 4.12750E+01 2.54000E+01 1.82626E+01
 -1       216 4.12750E+01 2.54000E+01 1.38938E+01
 -1       217 4.12750E+01 2.54000E+01 2.26314E+01
 -1       218 4.12750E+01-1.52400E+01 2.70002E+01
 -1       219 4.12750E+01-5.08000E+00 2.70002E+01
 -1       220 4.12750E+01 5.08000E+00 2.70002E+01
 -1       221 4.12750E+01 1.52400E+01 2.70002E+01
 -1       222 4.12750E+01-2.03200E+01 2.70002E+01
 -1       223 4.12750E+01-1.01600E+01 2.70002E+01
 -1       224 4.12750E+01-2.13163E-14 2.70002E+01
 -1       225 4.12750E+01 1.01600E+01 2.70002E+01
 -1       226 4.12750E+01 2.03200E+01 2.70002E+01
 -1       227 4.12750E+01-2.54000E+01 1.82626E+01
 -1       228 4.12750E+01-2.54000E+01 1.38938E+01
 -1       229 4.12750E+01-2.54000E+01 2.26314E+01
 -1       230 4.12750E+01-4.65667E+01 9.52500E+00
 -1       231 4.12750E+01-3.59833E+01 9.52500E+00
 -1       232 4.12750E+01-5.18583E+01 9.52500E+00
 -1       233 4.12750E+01-4.12750E+01 9.52500E+00
 -1       234 4.12750E+01-3.06917E+01 9.52500E+00
 -1       235-3.06917E+01 7.93750E+00 9.52500E+00
 -1       236-2.01083E+01 7.93750E+00 9.52500E+00
 -1       237-9.52500E+00 7.93750E+00 9.52500E+00
 -1       238 1.05833E+00 7.93750E+00 9.52500E+00
 -1       239 1.16417E+01 7.93750E+00 9.52500E+00
 -1       240-3.59833E+01 7.93750E+00 9.52500E+00
 -1       241-2.54000E+01 7.93750E+00 9.52500E+00
 -1       242-1.48167E+01 7.93750E+00 9.52500E+00
 -1       243-4.23333E+00 7.93750E+00 9.52500E+00
 -1       244 6.35000E+00 7.93750E+00 9.52500E+00
 -1       245 1.69333E+01 7.93750E+00 9.52500E+00
 -1       246 2.22250E+01 1.66688E+01 9.52500E+00
 -1       247 2.22250E+01 1.23031E+01 9.52500E+00
 -1       248 2.22250E+01 2.10344E+01 9.52500E+00
 -1       249 3.17500E+01 2.54000E+01 9.52500E+00
 -1       250 2.69875E+01 2.54000E+01 9.52500E+00
 -1       251 3.65125E+01 2.54000E+01 9.52500E+00
 -1       252 3.17500E+01-2.54000E+01 9.52500E+00
 -1       253 2.69875E+01-2.54000E+01 9.52500E+00
 -1       254 3.65125E+01-2.54000E+01 9.52500E+00
 -1       255 2.22250E+01-1.66688E+01 9.52500E+00
 -1       256 2.22250E+01-2.10344E+01 9.52500E+00
 -1       257 2.22250E+01-1.23031E+01 9.52500E+00
 -1       258-3.06917E+01-7.93750E+00 9.52500E+00
 -1       259-2.01083E+01-7.93750E+00 9.52500E+00
 -1       260-9.52500E+00-7.93750E+00 9.52500E+00
 -1       261 1.05833E+00-7.93750E+00 9.52500E+00
 -1       262 1.16417E+01-7.93750E+00 9.52500E+00
 -1       263-3.59833E+01-7.93750E+00 9.52500E+00
 -1       264-2.54000E+01-7.93750E+00 9.52500E+00
 -1       265-1.48167E+01-7.93750E+00 9.52500E+00
 -1       266-4.23333E+00-7.93750E+00 9.52500E+00
 -1       267 6.35000E+00-7.93750E+00 9.52500E+00
 -1       268 1.69333E+01-7.93750E+00 9.52500E+00
 -1       269 2.22250E+01 1.66688E+01 2.70002E+01
 -1       270 2.22250E+01 1.23031E+01 2.70002E+01
 -1       271 2.22250E+01 2.10344E+01 2.70002E+01
 -1       272 2.39205E+01 7.93750E+00 3.77499E+01
 -1       273 2.88424E+01 7.93750E+00 4.74559E+01
 -1       274 3.65128E+01 7.93750E+00 5.51757E+01
 -1       275 4.62832E+01 7.93750E+00 6.01916E+01
 -1       276 2.26515E+01 7.93750E+00 3.24415E+01
 -1       277 2.60011E+01 7.93750E+00 4.27958E+01
 -1       278 3.23750E+01 7.93750E+00 5.16164E+01
 -1       279 4.11542E+01 7.93750E+00 5.80468E+01
 -1       280 5.12851E+01 7.93750E+00 6.14292E+01
 -1       281 5.69254E+01 1.66688E+01 6.19245E+01
 -1       282 5.69254E+01 1.23030E+01 6.19245E+01
 -1       283 5.69254E+01 2.10344E+01 6.19245E+01
 -1       284 2.39205E+01 2.54000E+01 3.77499E+01
 -1       285 2.88424E+01 2.54000E+01 4.74559E+01
 -1       286 3.65128E+01 2.54000E+01 5.51757E+01
 -1       287 4.61869E+01 2.54000E+01 6.01599E+01
 -1       288 2.26515E+01 2.54000E+01 3.24415E+01
 -1       289 2.60011E+01 2.54000E+01 4.27958E+01
 -1       290 3.23750E+01 2.54000E+01 5.16164E+01
 -1       291 4.11545E+01 2.54000E+01 5.80469E+01
 -1       292 5.14870E+01 2.54000E+01 6.14630E+01
 -1       293 2.39205E+01-7.93750E+00 3.77499E+01
 -1       294 2.88424E+01-7.93750E+00 4.74559E+01
 -1       295 3.65128E+01-7.93750E+00 5.51757E+01
 -1       296 4.62864E+01-7.93750E+00 6.01926E+01
 -1       297 2.26515E+01-7.93750E+00 3.24415E+01
 -1       298 2.60011E+01-7.93750E+00 4.27958E+01
 -1       299 3.23750E+01-7.93750E+00 5.16164E+01
 -1       300 4.11504E+01-7.93750E+00 5.80448E+01
 -1       301 5.12848E+01-7.93750E+00 6.14292E+01
 -1       302 2.22250E+01-1.66688E+01 2.70002E+01
 -1       303 2.22250E+01-2.10344E+01 2.70002E+01
 -1       304 2.22250E+01-1.23031E+01 2.70002E+01
 -1       305 2.39205E+01-2.54000E+01 3.77499E+01
 -1       306 2.88424E+01-2.54000E+01 4.74559E+01
 -1       307 3.65128E+01-2.54000E+01 5.51757E+01
 -1       308 4.61869E+01-2.54000E+01 6.01599E+01
 -1       309 2.26515E+01-2.54000E+01 3.24415E+01
 -1       310 2.60011E+01-2.54000E+01 4.27958E+01
 -1       311 3.23750E+01-2.54000E+01 5.16164E+01
 -1       312 4.11545E+01-2.54000E+01 5.80469E+01
 -1       313 5.14868E+01-2.54000E+01 6.14630E+01
 -1       314 5.69254E+01-1.66688E+01 6.19245E+01
 -1       315 5.69254E+01-2.10344E+01 6.19245E+01
 -1       316 5.69254E+01-1.23032E+01 6.19245E+01
 -1       317 2.22250E+01 7.93750E+00 1.82626E+01
 -1       318 2.22250E+01 7.93750E+00 1.38938E+01
 -1       319 2.22250E+01 7.93750E+00 2.26314E+01
 -1       320 2.22250E+01 2.54000E+01 1.82626E+01
 -1       321 2.22250E+01 2.54000E+01 1.38938E+01
 -1       322 2.22250E+01 2.54000E+01 2.26314E+01
 -1       323 2.22250E+01-7.93750E+00 1.82626E+01
 -1       324 2.22250E+01-7.93750E+00 1.38938E+01
 -1       325 2.22250E+01-7.93750E+00 2.26314E+01
 -1       326 2.22250E+01-2.54000E+01 1.82626E+01
 -1       327 2.22250E+01-2.54000E+01 1.38938E+01
 -1       328 2.22250E+01-2.54000E+01 2.26314E+01
 -1       329 6.25209E+01 1.03311E+01 3.81000E+01
 -1       330 6.87291E+01 1.88759E+01 3.81000E+01
 -1       331 7.78758E+01 2.41568E+01 3.81000E+01
 -1       332 8.83800E+01 2.52609E+01 3.81000E+01
 -1       333 9.84250E+01 2.19970E+01 3.81000E+01
 -1       334 1.06274E+02 1.49297E+01 3.81000E+01
 -1       335 1.10570E+02 5.28096E+00 3.81000E+01
 -1       336 1.10570E+02-5.28096E+00 3.81000E+01
 -1       337 1.06274E+02-1.49297E+01 3.81000E+01
 -1       338 9.84250E+01-2.19970E+01 3.81000E+01
 -1       339 8.83800E+01-2.52609E+01 3.81000E+01
 -1       340 7.78758E+01-2.41568E+01 3.81000E+01
 -1       341 6.87291E+01-1.88759E+01 3.81000E+01
 -1       342 6.25209E+01-1.03311E+01 3.81000E+01
 -1       343 6.08801E+01 5.28096E+00 3.81000E+01
 -1       344 6.51760E+01 1.49297E+01 3.81000E+01
 -1       345 7.30249E+01 2.19970E+01 3.81000E+01
 -1       346 8.30700E+01 2.52609E+01 3.81000E+01
 -1       347 9.35740E+01 2.41568E+01 3.81000E+01
 -1       348 1.02721E+02 1.88759E+01 3.81000E+01
 -1       349 1.08929E+02 1.03311E+01 3.81000E+01
 -1       350 1.11125E+02-1.54808E-13 3.81000E+01
 -1       351 1.08929E+02-1.03311E+01 3.81000E+01
 -1       352 1.02721E+02-1.88759E+01 3.81000E+01
 -1       353 9.35740E+01-2.41568E+01 3.81000E+01
 -1       354 8.30699E+01-2.52609E+01 3.81000E+01
 -1       355 7.30250E+01-2.19970E+01 3.81000E+01
 -1       356 6.51760E+01-1.49297E+01 3.81000E+01
 -1       357 6.08801E+01-5.28096E+00 3.81000E+01
 -1       358 6.25209E+01 1.03311E+01 6.66750E+01
 -1       359 6.87291E+01 1.88759E+01 6.66750E+01
 -1       360 7.78758E+01 2.41568E+01 6.66750E+01
 -1       361 8.83800E+01 2.52609E+01 6.66750E+01
 -1       362 9.84250E+01 2.19970E+01 6.66750E+01
 -1       363 1.06274E+02 1.49297E+01 6.66750E+01
 -1       364 1.10570E+02 5.28096E+00 6.66750E+01
 -1       365 1.10570E+02-5.28096E+00 6.66750E+01
 -1       366 1.06274E+02-1.49297E+01 6.66750E+01
 -1       367 9.84250E+01-2.19970E+01 6.66750E+01
 -1       368 8.83800E+01-2.52609E+01 6.66750E+01
 -1       369 7.78757E+01-2.41568E+01 6.66750E+01
 -1       370 6.87291E+01-1.88759E+01 6.66750E+01
 -1       371 6.25209E+01-1.03311E+01 6.66750E+01
 -1       372 6.08801E+01 5.28096E+00 6.66750E+01
 -1       373 6.51760E+01 1.49297E+01 6.66750E+01
 -1       374 7.30249E+01 2.19970E+01 6.66750E+01
 -1       375 8.30699E+01 2.52609E+01 6.66750E+01
 -1       376 9.35740E+01 2.41568E+01 6.66750E+01
 -1       377 1.02721E+02 1.88759E+01 6.66750E+01
 -1       378 1.08929E+02 1.03311E+01 6.66750E+01
 -1       379 1.11125E+02-1.54808E-13 6.66750E+01
 -1       380 1.08929E+02-1.03311E+01 6.66750E+01
 -1       381 1.02721E+02-1.88759E+01 6.66750E+01
 -1       382 9.35740E+01-2.41568E+01 6.66750E+01
 -1       383 8.30700E+01-2.52609E+01 6.66750E+01
 -1       384 7.30250E+01-2.19970E+01 6.66750E+01
 -1       385 6.51760E+01-1.49297E+01 6.66750E+01
 -1       386 6.08801E+01-5.28096E+00 6.66750E+01
 -1       387 6.03250E+01 0.00000E+00 4.04876E+01
 -1       388 6.03250E+01 0.00000E+00 3.92938E+01
 -1       389 6.03250E+01 0.00000E+00 4.16814E+01
 -1       390 7.61056E+01 2.35080E+01 4.28752E+01
 -1       391 6.77645E+01 1.79605E+01 4.28752E+01
 -1       392 6.22585E+01 9.72016E+00 4.28752E+01
 -1       393 8.05468E+01 2.48666E+01 4.28752E+01
 -1       394 7.16131E+01 2.11190E+01 4.28752E+01
 -1       395 6.46057E+01 1.41115E+01 4.28752E+01
 -1       396 6.08131E+01 4.95529E+00 4.28752E+01
 -1       397 8.57250E+01 2.54000E+01 5.24002E+01
 -1       398 8.57250E+01 2.54000E+01 4.76379E+01
 -1       399 8.57250E+01 2.54000E+01 5.71626E+01
 -1       400 7.61061E+01 2.35082E+01 6.19252E+01
 -1       401 6.77645E+01 1.79605E+01 6.19252E+01
 -1       402 6.22585E+01 9.72016E+00 6.19252E+01
 -1       403 8.05468E+01 2.48666E+01 6.19252E+01
 -1       404 7.16131E+01 2.11190E+01 6.19252E+01
 -1       405 6.46057E+01 1.41115E+01 6.19252E+01
 -1       406 6.08131E+01 4.95529E+00 6.19252E+01
 -1       407 6.03250E+01 0.00000E+00 6.43001E+01
 -1       408 6.03250E+01 0.00000E+00 6.31127E+01
 -1       409 6.03250E+01 0.00000E+00 6.54875E+01
 -1       410 6.22585E+01-9.72016E+00 6.19252E+01
 -1       411 6.77645E+01-1.79605E+01 6.19252E+01
 -1       412 7.61052E+01-2.35079E+01 6.19252E+01
 -1       413 6.08131E+01-4.95529E+00 6.19252E+01
 -1       414 6.46057E+01-1.41115E+01 6.19252E+01
 -1       415 7.16130E+01-2.11190E+01 6.19252E+01
 -1       416 8.05468E+01-2.48666E+01 6.19252E+01
 -1       417 8.57250E+01-2.54000E+01 5.24002E+01
 -1       418 8.57250E+01-2.54000E+01 4.76377E+01
 -1       419 8.57250E+01-2.54000E+01 5.71627E+01
 -1       420 6.22585E+01-9.72016E+00 4.28752E+01
 -1       421 6.77645E+01-1.79605E+01 4.28752E+01
 -1       422 7.61061E+01-2.35082E+01 4.28752E+01
 -1       423 6.08131E+01-4.95529E+00 4.28752E+01
 -1       424 6.46057E+01-1.41115E+01 4.28752E+01
 -1       425 7.16131E+01-2.11190E+01 4.28752E+01
 -1       426 8.05466E+01-2.48665E+01 4.28752E+01
 -1       427 4.67751E+01-7.93750E+00 6.16211E+01
 -1       428 3.66825E+01-7.93750E+00 6.07884E+01
 -1       429 2.66358E+01-7.93750E+00 5.94102E+01
 -1       430 1.66851E+01-7.93750E+00 5.74573E+01
 -1       431 6.87788E+00-7.93750E+00 5.48800E+01
 -1       432-2.71747E+00-7.93750E+00 5.16030E+01
 -1       433-1.19953E+01-7.93750E+00 4.75157E+01
 -1       434-2.07809E+01-7.93750E+00 4.24610E+01
 -1       435-2.87681E+01-7.93750E+00 3.62288E+01
 -1       436-3.54140E+01-7.93750E+00 2.85958E+01
 -1       437-3.98638E+01-7.93750E+00 1.95232E+01
 -1       438 5.18736E+01-7.93750E+00 6.18397E+01
 -1       439 4.17313E+01-7.93750E+00 6.12721E+01
 -1       440 3.16496E+01-7.93750E+00 6.01689E+01
 -1       441 2.16458E+01-7.93750E+00 5.85082E+01
 -1       442 1.17599E+01-7.93750E+00 5.62507E+01
 -1       443 2.04827E+00-7.93750E+00 5.33349E+01
 -1       444-7.40487E+00-7.93750E+00 4.96692E+01
 -1       445-1.64647E+01-7.93750E+00 4.51213E+01
 -1       446-2.49011E+01-7.93750E+00 3.95069E+01
 -1       447-3.23052E+01-7.93750E+00 3.25983E+01
 -1       448-3.79753E+01-7.93750E+00 2.42239E+01
 -1       449-4.09779E+01-7.93750E+00 1.45818E+01
 -1       450 4.67750E+01 7.93750E+00 6.16210E+01
 -1       451 3.66825E+01 7.93750E+00 6.07884E+01
 -1       452 2.66358E+01 7.93750E+00 5.94102E+01
 -1       453 1.66851E+01 7.93750E+00 5.74573E+01
 -1       454 6.87788E+00 7.93750E+00 5.48800E+01
 -1       455-2.71747E+00 7.93750E+00 5.16030E+01
 -1       456-1.19953E+01 7.93750E+00 4.75157E+01
 -1       457-2.07809E+01 7.93750E+00 4.24610E+01
 -1       458-2.87681E+01 7.93750E+00 3.62288E+01
 -1       459-3.54140E+01 7.93750E+00 2.85958E+01
 -1       460-3.98638E+01 7.93750E+00 1.95232E+01
 -1       461 5.18733E+01 7.93750E+00 6.18397E+01
 -1       462 4.17313E+01 7.93750E+00 6.12721E+01
 -1       463 3.16496E+01 7.93750E+00 6.01689E+01
 -1       464 2.16458E+01 7.93750E+00 5.85082E+01
 -1       465 1.17599E+01 7.93750E+00 5.62507E+01
 -1       466 2.04827E+00 7.93750E+00 5.33349E+01
 -1       467-7.40487E+00 7.93750E+00 4.96692E+01
 -1       468-1.64647E+01 7.93750E+00 4.51213E+01
 -1       469-2.49011E+01 7.93750E+00 3.95069E+01
 -1       470-3.23052E+01 7.93750E+00 3.25983E+01
 -1       471-3.79753E+01 7.93750E+00 2.42239E+01
 -1       472-4.09779E+01 7.93750E+00 1.45818E+01
 -1       473 4.34018E+01-2.54000E+01 3.49377E+01
 -1       474 4.92125E+01-2.54000E+01 4.07484E+01
 -1       475 4.18159E+01-2.54000E+01 3.11090E+01
 -1       476 4.59247E+01-2.54000E+01 3.82255E+01
 -1       477 5.30412E+01-2.54000E+01 4.23343E+01
 -1       478 6.66750E+01-2.54000E+01 4.28752E+01
 -1       479 7.62042E+01-2.54000E+01 4.28752E+01
 -1       480 6.19125E+01-2.54000E+01 4.28752E+01
 -1       481 7.14385E+01-2.54000E+01 4.28752E+01
 -1       482 8.09440E+01-2.54000E+01 4.28752E+01
 -1       483 6.66750E+01-2.54000E+01 6.19252E+01
 -1       484 7.62041E+01-2.54000E+01 6.19252E+01
 -1       485 6.19125E+01-2.54000E+01 6.19252E+01
 -1       486 7.14385E+01-2.54000E+01 6.19252E+01
 -1       487 8.09441E+01-2.54000E+01 6.19252E+01
 -1       488 5.70377E+01-2.54000E+01 6.19249E+01
 -1       489 5.70939E+01-2.54000E+01 6.19250E+01
 -1       490 5.69818E+01-2.54000E+01 6.19247E+01
 -1       491 5.70377E+01 2.54000E+01 6.19249E+01
 -1       492 5.70939E+01 2.54000E+01 6.19250E+01
 -1       493 5.69816E+01 2.54000E+01 6.19247E+01
 -1       494 6.66750E+01 2.54000E+01 6.19252E+01
 -1       495 7.62042E+01 2.54000E+01 6.19252E+01
 -1       496 6.19125E+01 2.54000E+01 6.19252E+01
 -1       497 7.14385E+01 2.54000E+01 6.19252E+01
 -1       498 8.09440E+01 2.54000E+01 6.19252E+01
 -1       499 6.66750E+01 2.54000E+01 4.28752E+01
 -1       500 7.62041E+01 2.54000E+01 4.28752E+01
 -1       501 6.19125E+01 2.54000E+01 4.28752E+01
 -1       502 7.14385E+01 2.54000E+01 4.28752E+01
 -1       503 8.09441E+01 2.54000E+01 4.28752E+01
 -1       504 4.34018E+01 2.54000E+01 3.49377E+01
 -1       505 4.92125E+01 2.54000E+01 4.07484E+01
 -1       506 4.18159E+01 2.54000E+01 3.11090E+01
 -1       507 4.59247E+01 2.54000E+01 3.82255E+01
 -1       508 5.30412E+01 2.54000E+01 4.23343E+01
 -1       509 5.71500E+01-1.52400E+01 6.19252E+01
 -1       510 5.71500E+01-5.09173E+00 6.19252E+01
 -1       511 5.71500E+01 5.08000E+00 6.19252E+01
 -1       512 5.71500E+01 1.52400E+01 6.19252E+01
 -1       513 5.71500E+01-2.03200E+01 6.19252E+01
 -1       514 5.71500E+01-1.01607E+01 6.19252E+01
 -1       515 5.71500E+01-4.32426E-05 6.19252E+01
 -1       516 5.71500E+01 1.01605E+01 6.19252E+01
 -1       517 5.71500E+01 2.03200E+01 6.19252E+01
 -1       518 5.71500E+01-1.52400E+01 4.28752E+01
 -1       519 5.71500E+01-5.08000E+00 4.28752E+01
 -1       520 5.71500E+01 5.08000E+00 4.28752E+01
 -1       521 5.71500E+01 1.52400E+01 4.28752E+01
 -1       522 5.71500E+01-2.03200E+01 4.28752E+01
 -1       523 5.71500E+01-1.01600E+01 4.28752E+01
 -1       524 5.71500E+01-2.13163E-14 4.28752E+01
 -1       525 5.71500E+01 1.01604E+01 4.28752E+01
 -1       526 5.71500E+01 2.03200E+01 4.28752E+01
 -1       527-3.73550E+01 6.30166E+01-4.76250E+00
 -1       528-4.07916E+01 5.95800E+01-4.76250E+00
 -1       529-4.07916E+01 5.95800E+01 4.76250E+00
 -1       530-3.73550E+01 6.30166E+01 4.76250E+00
 -1       531-3.94151E+01 6.16401E+01-1.02279E-14
 -1       532-4.07916E+01-5.95800E+01-4.76250E+00
 -1       533-3.73550E+01-6.30166E+01-4.76250E+00
 -1       534-3.73550E+01-6.30166E+01 4.76250E+00
 -1       535-4.07916E+01-5.95800E+01 4.76250E+00
 -1       536-3.94151E+01-6.16401E+01-4.94049E-15
 -1       537 4.07916E+01 5.95800E+01-4.76250E+00
 -1       538 3.73550E+01 6.30166E+01-4.76250E+00
 -1       539 3.73550E+01 6.30166E+01 4.76250E+00
 -1       540 4.07916E+01 5.95800E+01 4.76250E+00
 -1       541 3.94151E+01 6.16401E+01-4.94049E-15
 -1       542 3.73550E+01-6.30166E+01-4.76250E+00
 -1       543 4.07916E+01-5.95800E+01-4.76250E+00
 -1       544 4.07916E+01-5.95800E+01 4.76250E+00
 -1       545 3.73550E+01-6.30166E+01 4.76250E+00
 -1       546 3.94151E+01-6.16401E+01-1.02279E-14
 -1       547-7.90388E-01 5.38685E+01-9.52500E+00
 -1       548-2.72600E-02-5.58074E+01-9.52500E+00
 -1       549 3.16484E+01 1.07072E+01-9.52500E+00
 -1       550-3.25110E+01-1.02415E+01-9.52500E+00
 -1       551-3.22762E+01 2.07818E+01-9.52500E+00
 -1       552 3.28282E+01-2.25158E+01-9.52500E+00
 -1       553-3.28899E+01-3.15233E+01-9.52500E+00
 -1       554 3.22762E+01 3.11727E+01-9.52500E+00
 -1       555-3.23999E+01 4.13871E+01-9.52500E+00
 -1       556 3.21416E+01-4.05283E+01-9.52500E+00
 -1       557 1.99516E+01 5.49534E+01-9.52500E+00
 -1       558-1.99571E+01-5.48583E+01-9.52500E+00
 -1       559 1.96959E+01-5.49865E+01-9.52500E+00
 -1       560-1.99986E+01 5.54161E+01-9.52500E+00
 -1       561-3.45259E+01-5.19545E+01-9.52500E+00
 -1       562 3.45259E+01 5.19545E+01-9.52500E+00
 -1       563 3.52638E+01-5.78562E+01-9.52500E+00
 -1       564-3.52638E+01 5.78562E+01-9.52500E+00
 -1       565 3.28371E+01 4.23436E+01-9.52500E+00
 -1       566 2.38827E+01 3.73236E+01-9.52500E+00
 -1       567 2.30040E+01 2.70146E+01-9.52500E+00
 -1       568 1.45064E+01 3.31083E+01-9.52500E+00
 -1       569 1.35605E+01 2.25650E+01-9.52500E+00
 -1       570 5.09694E+00 2.88827E+01-9.52500E+00
 -1       571 4.14078E+00 1.83315E+01-9.52500E+00
 -1       572-4.30946E+00 2.46916E+01-9.52500E+00
 -1       573-5.41162E+00 1.44328E+01-9.52500E+00
 -1       574 3.04071E+00 8.27871E+00-9.52500E+00
 -1       575-6.37873E+00 4.18134E+00-9.52500E+00
 -1       576 2.25609E+00-2.09055E+00-9.52500E+00
 -1       577-7.31009E+00-6.31733E+00-9.52500E+00
 -1       578 8.31020E-01-1.22234E+01-9.52500E+00
 -1       579-8.56558E+00-1.65937E+01-9.52500E+00
 -1       580-3.62779E-01-2.24650E+01-9.52500E+00
 -1       581 1.13505E+01-8.43109E+00-9.52500E+00
 -1       582-9.66306E+00-2.64708E+01-9.52500E+00
 -1       583-1.48518E+00-3.26286E+01-9.52500E+00