    1C
    1UUSER                                                              
    1UDATE              27.july.2025                                    
    1UTIME              22:53:03                                        
    1UHOST                                                              
    1UPGM               CalculiX                                        
    1UVERSION           Version 2.22                             
    1UCOMPILETIME       Mon Aug  5 19:15:25 CEST 2024                    
    1UDIR                                                               
    1UDBN                                                               
    1UMAT    1TPU                                                       
    2C                          2034                                     1
 -1         1 1.00000E+01 1.00000E+01-2.77556E-16
 -1         2 1.80411E-15 1.00000E+01-2.77556E-16
 -1         3 1.80411E-15 1.00000E+01 1.00000E+01
 -1         4 1.00000E+01 1.00000E+01 1.00000E+01
 -1         5 1.00000E+01-2.77556E-16-2.77556E-16
 -1         6 1.00000E+01-2.77556E-16 1.00000E+01
 -1         7-2.77556E-16-2.77556E-16-2.77556E-16
 -1         8-2.77556E-16-2.77556E-16 1.00000E+01
 -1         9 8.33333E+00 1.00000E+01-2.77556E-16
 -1        10 6.66667E+00 1.00000E+01-2.77556E-16
 -1        11 5.00000E+00 1.00000E+01-2.77556E-16
 -1        12 3.33333E+00 1.00000E+01-2.77556E-16
 -1        13 1.66667E+00 1.00000E+01-2.77556E-16
 -1        14 9.16667E+00 1.00000E+01-2.77556E-16
 -1        15 7.50000E+00 1.00000E+01-2.77556E-16
 -1        16 5.83333E+00 1.00000E+01-2.77556E-16
 -1        17 4.16667E+00 1.00000E+01-2.77556E-16
 -1        18 2.50000E+00 1.00000E+01-2.77556E-16
 -1        19 8.33333E-01 1.00000E+01-2.77556E-16
 -1        20 1.80411E-15 1.00000E+01 1.66667E+00
 -1        21 1.80411E-15 1.00000E+01 3.33333E+00
 -1        22 1.80411E-15 1.00000E+01 5.00000E+00
 -1        23 1.80411E-15 1.00000E+01 6.66667E+00
 -1        24 1.80411E-15 1.00000E+01 8.33333E+00
 -1        25 1.80411E-15 1.00000E+01 8.33333E-01
 -1        26 1.80411E-15 1.00000E+01 2.50000E+00
 -1        27 1.80411E-15 1.00000E+01 4.16667E+00
 -1        28 1.80411E-15 1.00000E+01 5.83333E+00
 -1        29 1.80411E-15 1.00000E+01 7.50000E+00
 -1        30 1.80411E-15 1.00000E+01 9.16667E+00
 -1        31 8.33333E+00 1.00000E+01 1.00000E+01
 -1        32 6.66667E+00 1.00000E+01 1.00000E+01
 -1        33 5.00000E+00 1.00000E+01 1.00000E+01
 -1        34 3.33333E+00 1.00000E+01 1.00000E+01
 -1        35 1.66667E+00 1.00000E+01 1.00000E+01
 -1        36 9.16667E+00 1.00000E+01 1.00000E+01
 -1        37 7.50000E+00 1.00000E+01 1.00000E+01
 -1        38 5.83333E+00 1.00000E+01 1.00000E+01
 -1        39 4.16667E+00 1.00000E+01 1.00000E+01
 -1        40 2.50000E+00 1.00000E+01 1.00000E+01
 -1        41 8.33333E-01 1.00000E+01 1.00000E+01
 -1        42 1.00000E+01 1.00000E+01 1.66667E+00
 -1        43 1.00000E+01 1.00000E+01 3.33333E+00
 -1        44 1.00000E+01 1.00000E+01 5.00000E+00
 -1        45 1.00000E+01 1.00000E+01 6.66667E+00
 -1        46 1.00000E+01 1.00000E+01 8.33333E+00
 -1        47 1.00000E+01 1.00000E+01 8.33333E-01
 -1        48 1.00000E+01 1.00000E+01 2.50000E+00
 -1        49 1.00000E+01 1.00000E+01 4.16667E+00
 -1        50 1.00000E+01 1.00000E+01 5.83333E+00
 -1        51 1.00000E+01 1.00000E+01 7.50000E+00
 -1        52 1.00000E+01 1.00000E+01 9.16667E+00
 -1        53 1.00000E+01 1.66667E+00-2.77556E-16
 -1        54 1.00000E+01 3.33333E+00-2.77556E-16
 -1        55 1.00000E+01 5.00000E+00-2.77556E-16
 -1        56 1.00000E+01 6.66667E+00-2.77556E-16
 -1        57 1.00000E+01 8.33333E+00-2.77556E-16
 -1        58 1.00000E+01 8.33333E-01-2.77556E-16
 -1        59 1.00000E+01 2.50000E+00-2.77556E-16
 -1        60 1.00000E+01 4.16667E+00-2.77556E-16
 -1        61 1.00000E+01 5.83333E+00-2.77556E-16
 -1        62 1.00000E+01 7.50000E+00-2.77556E-16
 -1        63 1.00000E+01 9.16667E+00-2.77556E-16
 -1        64 1.00000E+01 1.66667E+00 1.00000E+01
 -1        65 1.00000E+01 3.33333E+00 1.00000E+01
 -1        66 1.00000E+01 5.00000E+00 1.00000E+01
 -1        67 1.00000E+01 6.66667E+00 1.00000E+01
 -1        68 1.00000E+01 8.33333E+00 1.00000E+01
 -1        69 1.00000E+01 8.33333E-01 1.00000E+01
 -1        70 1.00000E+01 2.50000E+00 1.00000E+01
 -1        71 1.00000E+01 4.16667E+00 1.00000E+01
 -1        72 1.00000E+01 5.83333E+00 1.00000E+01
 -1        73 1.00000E+01 7.50000E+00 1.00000E+01
 -1        74 1.00000E+01 9.16667E+00 1.00000E+01
 -1        75 1.00000E+01-2.77556E-16 1.66667E+00
 -1        76 1.00000E+01-2.77556E-16 3.33333E+00
 -1        77 1.00000E+01-2.77556E-16 5.00000E+00
 -1        78 1.00000E+01-2.77556E-16 6.66667E+00
 -1        79 1.00000E+01-2.77556E-16 8.33333E+00
 -1        80 1.00000E+01-2.77556E-16 8.33333E-01
 -1        81 1.00000E+01-2.77556E-16 2.50000E+00
 -1        82 1.00000E+01-2.77556E-16 4.16667E+00
 -1        83 1.00000E+01-2.77556E-16 5.83333E+00
 -1        84 1.00000E+01-2.77556E-16 7.50000E+00
 -1        85 1.00000E+01-2.77556E-16 9.16667E+00
 -1        86 1.66667E+00-2.77556E-16-2.77556E-16
 -1        87 3.33333E+00-2.77556E-16-2.77556E-16
 -1        88 5.00000E+00-2.77556E-16-2.77556E-16
 -1        89 6.66667E+00-2.77556E-16-2.77556E-16
 -1        90 8.33333E+00-2.77556E-16-2.77556E-16
 -1        91 8.33333E-01-2.77556E-16-2.77556E-16
 -1        92 2.50000E+00-2.77556E-16-2.77556E-16
 -1        93 4.16667E+00-2.77556E-16-2.77556E-16
 -1        94 5.83333E+00-2.77556E-16-2.77556E-16
 -1        95 7.50000E+00-2.77556E-16-2.77556E-16
 -1        96 9.16667E+00-2.77556E-16-2.77556E-16
 -1        97 1.66667E+00-2.77556E-16 1.00000E+01
 -1        98 3.33333E+00-2.77556E-16 1.00000E+01
 -1        99 5.00000E+00-2.77556E-16 1.00000E+01
 -1       100 6.66667E+00-2.77556E-16 1.00000E+01
 -1       101 8.33333E+00-2.77556E-16 1.00000E+01
 -1       102 8.33333E-01-2.77556E-16 1.00000E+01
 -1       103 2.50000E+00-2.77556E-16 1.00000E+01
 -1       104 4.16667E+00-2.77556E-16 1.00000E+01
 -1       105 5.83333E+00-2.77556E-16 1.00000E+01
 -1       106 7.50000E+00-2.77556E-16 1.00000E+01
 -1       107 9.16667E+00-2.77556E-16 1.00000E+01
 -1       108-2.77556E-16-2.77556E-16 1.66667E+00
 -1       109-2.77556E-16-2.77556E-16 3.33333E+00
 -1       110-2.77556E-16-2.77556E-16 5.00000E+00
 -1       111-2.77556E-16-2.77556E-16 6.66667E+00
 -1       112-2.77556E-16-2.77556E-16 8.33333E+00
 -1       113-2.77556E-16-2.77556E-16 8.33333E-01
 -1       114-2.77556E-16-2.77556E-16 2.50000E+00
 -1       115-2.77556E-16-2.77556E-16 4.16667E+00
 -1       116-2.77556E-16-2.77556E-16 5.83333E+00
 -1       117-2.77556E-16-2.77556E-16 7.50000E+00
 -1       118-2.77556E-16-2.77556E-16 9.16667E+00
 -1       119 1.80411E-15 8.33333E+00-2.77556E-16
 -1       120 1.11022E-15 6.66667E+00-2.77556E-16
 -1       121 1.11022E-15 5.00000E+00-2.77556E-16
 -1       122 1.11022E-15 3.33333E+00-2.77556E-16
 -1       123-2.77556E-16 1.66667E+00-2.77556E-16
 -1       124 1.80411E-15 9.16667E+00-2.77556E-16
 -1       125 1.11022E-15 7.50000E+00-2.77556E-16
 -1       126 1.11022E-15 5.83333E+00-2.77556E-16
 -1       127 1.11022E-15 4.16667E+00-2.77556E-16
 -1       128-2.77556E-16 2.50000E+00-2.77556E-16
 -1       129-2.77556E-16 8.33333E-01-2.77556E-16
 -1       130 1.80411E-15 8.33333E+00 1.00000E+01
 -1       131 1.11022E-15 6.66667E+00 1.00000E+01
 -1       132 1.11022E-15 5.00000E+00 1.00000E+01
 -1       133 1.11022E-15 3.33333E+00 1.00000E+01
 -1       134-2.77556E-16 1.66667E+00 1.00000E+01
 -1       135 1.80411E-15 9.16667E+00 1.00000E+01
 -1       136 1.11022E-15 7.50000E+00 1.00000E+01
 -1       137 1.11022E-15 5.83333E+00 1.00000E+01
 -1       138 1.11022E-15 4.16667E+00 1.00000E+01
 -1       139-2.77556E-16 2.50000E+00 1.00000E+01
 -1       140-2.77556E-16 8.33333E-01 1.00000E+01
 -1       141 1.49383E+00 1.00000E+01 5.97788E+00
 -1       142 8.50617E+00 1.00000E+01 5.97788E+00
 -1       143 4.18489E+00 1.00000E+01 1.50843E+00
 -1       144 4.16667E+00 1.00000E+01 8.55662E+00
 -1       145 7.37626E+00 1.00000E+01 1.51308E+00
 -1       146 7.49294E+00 1.00000E+01 8.58871E+00
 -1       147 1.38838E+00 1.00000E+01 2.47706E+00
 -1       148 2.50706E+00 1.00000E+01 8.58871E+00
 -1       149 3.07435E+00 1.00000E+01 6.97529E+00
 -1       150 4.95684E+00 1.00000E+01 7.09026E+00
 -1       151 4.16667E+00 1.00000E+01 5.66987E+00
 -1       152 5.77780E+00 1.00000E+01 5.63813E+00
 -1       153 4.99074E+00 1.00000E+01 4.25064E+00
 -1       154 6.60089E+00 1.00000E+01 4.21266E+00
 -1       155 3.33333E+00 1.00000E+01 4.22650E+00
 -1       156 5.80100E+00 1.00000E+01 2.72222E+00
 -1       157 6.91155E+00 1.00000E+01 6.96747E+00
 -1       158 1.68199E+00 1.00000E+01 4.20921E+00
 -1       159 8.30825E+00 1.00000E+01 4.22043E+00
 -1       160 5.86578E+00 1.00000E+01 8.53384E+00
 -1       161 1.38645E+00 1.00000E+01 7.51496E+00
 -1       162 8.61187E+00 1.00000E+01 7.51403E+00
 -1       163 2.47117E+00 1.00000E+01 1.36949E+00
 -1       164 8.60722E+00 1.00000E+01 2.55562E+00
 -1       165 4.21566E+00 1.00000E+01 3.13102E+00
 -1       166 5.80576E+00 1.00000E+01 1.14875E+00
 -1       167 7.33872E+00 1.00000E+01 3.04480E+00
 -1       168 2.87924E+00 1.00000E+01 2.82029E+00
 -1       169 7.22093E+00 1.00000E+01 5.40331E+00
 -1       170 2.79006E+00 1.00000E+01 5.50240E+00
 -1       171 1.22008E+00 1.00000E+01 8.77991E+00
 -1       172 8.77991E+00 1.00000E+01 8.77991E+00
 -1       173 8.77991E+00 1.00000E+01 1.22008E+00
 -1       174 1.22008E+00 1.00000E+01 1.22008E+00
 -1       175 8.55662E+00 1.00000E+01 6.10042E-01
 -1       176 9.38996E+00 1.00000E+01 6.10042E-01
 -1       177 9.38996E+00 1.00000E+01 1.44338E+00
 -1       178 6.10042E-01 1.00000E+01 6.10042E-01
 -1       179 1.44338E+00 1.00000E+01 6.10042E-01
 -1       180 6.10042E-01 1.00000E+01 1.44338E+00
 -1       181 6.10042E-01 1.00000E+01 9.38996E+00
 -1       182 6.10042E-01 1.00000E+01 8.55662E+00
 -1       183 1.44338E+00 1.00000E+01 9.38996E+00
 -1       184 9.38996E+00 1.00000E+01 9.38996E+00
 -1       185 8.55662E+00 1.00000E+01 9.38996E+00
 -1       186 9.38996E+00 1.00000E+01 8.55662E+00
 -1       187 7.02146E+00 1.00000E+01 7.56540E-01
 -1       188 7.85480E+00 1.00000E+01 7.56540E-01
 -1       189 8.07809E+00 1.00000E+01 1.36658E+00
 -1       190 5.40288E+00 1.00000E+01 5.74373E-01
 -1       191 6.23621E+00 1.00000E+01 5.74373E-01
 -1       192 6.59101E+00 1.00000E+01 1.33091E+00
 -1       193 3.75911E+00 1.00000E+01 7.54213E-01
 -1       194 4.59245E+00 1.00000E+01 7.54213E-01
 -1       195 4.99533E+00 1.00000E+01 1.32859E+00
 -1       196 2.06892E+00 1.00000E+01 6.84747E-01
 -1       197 2.90225E+00 1.00000E+01 6.84747E-01
 -1       198 3.32803E+00 1.00000E+01 1.43896E+00
 -1       199 1.84563E+00 1.00000E+01 1.29479E+00
 -1       200 6.94190E-01 1.00000E+01 2.90520E+00
 -1       201 6.94190E-01 1.00000E+01 2.07186E+00
 -1       202 1.30423E+00 1.00000E+01 1.84857E+00
 -1       203 8.40994E-01 1.00000E+01 4.60461E+00
 -1       204 8.40994E-01 1.00000E+01 3.77127E+00
 -1       205 1.53518E+00 1.00000E+01 3.34314E+00
 -1       206 7.46913E-01 1.00000E+01 6.32227E+00
 -1       207 7.46913E-01 1.00000E+01 5.48894E+00
 -1       208 1.58791E+00 1.00000E+01 5.09354E+00
 -1       209 6.93225E-01 1.00000E+01 7.92415E+00
 -1       210 6.93225E-01 1.00000E+01 7.09081E+00
 -1       211 1.44014E+00 1.00000E+01 6.74642E+00
 -1       212 1.30327E+00 1.00000E+01 8.14744E+00
 -1       213 7.91314E+00 1.00000E+01 9.29436E+00
 -1       214 7.07980E+00 1.00000E+01 9.29436E+00
 -1       215 8.13643E+00 1.00000E+01 8.68431E+00
 -1       216 6.26622E+00 1.00000E+01 9.26692E+00
 -1       217 5.43289E+00 1.00000E+01 9.26692E+00
 -1       218 6.67936E+00 1.00000E+01 8.56128E+00
 -1       219 4.58333E+00 1.00000E+01 9.27831E+00
 -1       220 3.75000E+00 1.00000E+01 9.27831E+00
 -1       221 5.01622E+00 1.00000E+01 8.54523E+00
 -1       222 2.92020E+00 1.00000E+01 9.29436E+00
 -1       223 2.08686E+00 1.00000E+01 9.29436E+00
 -1       224 3.33686E+00 1.00000E+01 8.57267E+00
 -1       225 1.86357E+00 1.00000E+01 8.68431E+00
 -1       226 9.30361E+00 1.00000E+01 2.11114E+00
 -1       227 9.30361E+00 1.00000E+01 2.94448E+00
 -1       228 8.69357E+00 1.00000E+01 1.88785E+00
 -1       229 9.15413E+00 1.00000E+01 3.77688E+00
 -1       230 9.15413E+00 1.00000E+01 4.61021E+00
 -1       231 8.45773E+00 1.00000E+01 3.38803E+00
 -1       232 9.25309E+00 1.00000E+01 5.48894E+00
 -1       233 9.25309E+00 1.00000E+01 6.32227E+00
 -1       234 8.40721E+00 1.00000E+01 5.09915E+00
 -1       235 9.30594E+00 1.00000E+01 7.09035E+00
 -1       236 9.30594E+00 1.00000E+01 7.92368E+00
 -1       237 8.55902E+00 1.00000E+01 6.74595E+00
 -1       238 8.69589E+00 1.00000E+01 8.14697E+00
 -1       239 2.23040E+00 1.00000E+01 7.24512E+00
 -1       240 2.28409E+00 1.00000E+01 6.47658E+00
 -1       241 2.93221E+00 1.00000E+01 6.23885E+00
 -1       242 2.14195E+00 1.00000E+01 5.74014E+00
 -1       243 2.23603E+00 1.00000E+01 4.85581E+00
 -1       244 7.76171E+00 1.00000E+01 7.24075E+00
 -1       245 7.70886E+00 1.00000E+01 6.47267E+00
 -1       246 7.86355E+00 1.00000E+01 5.69059E+00
 -1       247 7.06624E+00 1.00000E+01 6.18539E+00
 -1       248 7.76459E+00 1.00000E+01 4.81187E+00
 -1       249 4.20027E+00 1.00000E+01 2.31972E+00
 -1       250 5.00833E+00 1.00000E+01 2.92662E+00
 -1       251 4.99295E+00 1.00000E+01 2.11532E+00
 -1       252 5.80338E+00 1.00000E+01 1.93548E+00
 -1       253 2.67520E+00 1.00000E+01 2.09489E+00
 -1       254 3.53206E+00 1.00000E+01 2.16436E+00
 -1       255 3.54745E+00 1.00000E+01 2.97565E+00
 -1       256 3.62051E+00 1.00000E+01 7.76596E+00
 -1       257 2.79071E+00 1.00000E+01 7.78200E+00
 -1       258 4.56175E+00 1.00000E+01 7.82344E+00
 -1       259 4.01559E+00 1.00000E+01 7.03277E+00
 -1       260 5.41131E+00 1.00000E+01 7.81205E+00
 -1       261 6.58863E+00 1.00000E+01 2.11765E+00
 -1       262 6.56986E+00 1.00000E+01 2.88351E+00
 -1       263 7.35749E+00 1.00000E+01 2.27894E+00
 -1       264 7.97297E+00 1.00000E+01 2.80021E+00
 -1       265 7.99174E+00 1.00000E+01 2.03435E+00
 -1       266 6.38866E+00 1.00000E+01 7.75066E+00
 -1       267 7.20224E+00 1.00000E+01 7.77809E+00
 -1       268 8.05240E+00 1.00000E+01 8.05137E+00
 -1       269 2.28061E+00 1.00000E+01 3.51475E+00
 -1       270 2.13381E+00 1.00000E+01 2.64867E+00
 -1       271 1.92977E+00 1.00000E+01 1.92328E+00
 -1       272 1.94676E+00 1.00000E+01 8.05184E+00
 -1       273 4.56175E+00 1.00000E+01 6.38006E+00
 -1       274 3.62051E+00 1.00000E+01 6.32258E+00
 -1       275 3.47837E+00 1.00000E+01 5.58614E+00
 -1       276 5.36732E+00 1.00000E+01 6.36419E+00
 -1       277 4.97223E+00 1.00000E+01 5.65400E+00
 -1       278 5.93419E+00 1.00000E+01 7.02886E+00
 -1       279 6.34467E+00 1.00000E+01 6.30280E+00
 -1       280 5.38427E+00 1.00000E+01 4.94438E+00
 -1       281 4.57871E+00 1.00000E+01 4.96025E+00
 -1       282 4.16204E+00 1.00000E+01 4.23857E+00
 -1       283 3.75000E+00 1.00000E+01 4.94818E+00
 -1       284 3.06170E+00 1.00000E+01 4.86445E+00
 -1       285 6.18934E+00 1.00000E+01 4.92540E+00
 -1       286 5.79582E+00 1.00000E+01 4.23165E+00
 -1       287 6.49936E+00 1.00000E+01 5.52072E+00
 -1       288 6.91091E+00 1.00000E+01 4.80799E+00
 -1       289 6.20095E+00 1.00000E+01 3.46744E+00
 -1       290 5.39587E+00 1.00000E+01 3.48643E+00
 -1       291 4.60320E+00 1.00000E+01 3.69083E+00
 -1       292 3.77449E+00 1.00000E+01 3.67876E+00
 -1       293 6.96981E+00 1.00000E+01 3.62873E+00
 -1       294 7.82349E+00 1.00000E+01 3.63262E+00
 -1       295 7.45457E+00 1.00000E+01 4.21655E+00
 -1       296 3.10628E+00 1.00000E+01 3.52339E+00
 -1       297 2.50766E+00 1.00000E+01 4.21786E+00
 -1       298 1.00000E+01 8.55662E+00 5.83333E+00
 -1       299 1.00000E+01 1.50843E+00 5.81511E+00
 -1       300 1.00000E+01 5.97788E+00 1.49383E+00
 -1       301 1.00000E+01 5.97788E+00 8.50617E+00
 -1       302 1.00000E+01 2.45880E+00 1.35630E+00
 -1       303 1.00000E+01 8.58871E+00 2.50706E+00
 -1       304 1.00000E+01 2.47706E+00 8.61162E+00
 -1       305 1.00000E+01 8.58871E+00 7.49294E+00
 -1       306 1.00000E+01 6.97529E+00 6.92565E+00
 -1       307 1.00000E+01 7.09026E+00 5.04316E+00
 -1       308 1.00000E+01 5.66987E+00 5.83333E+00
 -1       309 1.00000E+01 5.63813E+00 4.22220E+00
 -1       310 1.00000E+01 4.25064E+00 5.00926E+00
 -1       311 1.00000E+01 4.22650E+00 6.66667E+00
 -1       312 1.00000E+01 4.21370E+00 3.40091E+00
 -1       313 1.00000E+01 2.83571E+00 4.40466E+00
 -1       314 1.00000E+01 8.55814E+00 4.17504E+00
 -1       315 1.00000E+01 4.20391E+00 1.68785E+00
 -1       316 1.00000E+01 4.20921E+00 8.31801E+00
 -1       317 1.00000E+01 6.96768E+00 3.08965E+00
 -1       318 1.00000E+01 7.51496E+00 8.61355E+00
 -1       319 1.00000E+01 7.51405E+00 1.38827E+00
 -1       320 1.00000E+01 1.36949E+00 7.52883E+00
 -1       321 1.00000E+01 1.31307E+00 2.41807E+00
 -1       322 1.00000E+01 1.35163E+00 4.05995E+00
 -1       323 1.00000E+01 3.15372E+00 5.82548E+00
 -1       324 1.00000E+01 2.83319E+00 2.83208E+00
 -1       325 1.00000E+01 2.82407E+00 7.12762E+00
 -1       326 1.00000E+01 5.50240E+00 7.20994E+00
 -1       327 1.00000E+01 5.40026E+00 2.77889E+00
 -1       328 1.00000E+01 8.77991E+00 8.77991E+00
 -1       329 1.00000E+01 1.22008E+00 8.77991E+00
 -1       330 1.00000E+01 8.77991E+00 1.22008E+00
 -1       331 1.00000E+01 1.21160E+00 1.21160E+00
 -1       332 1.00000E+01 9.38996E+00 1.44338E+00
 -1       333 1.00000E+01 9.38996E+00 6.10042E-01
 -1       334 1.00000E+01 8.55662E+00 6.10042E-01
 -1       335 1.00000E+01 9.38996E+00 9.38996E+00
 -1       336 1.00000E+01 9.38996E+00 8.55662E+00
 -1       337 1.00000E+01 8.55662E+00 9.38996E+00
 -1       338 1.00000E+01 1.43913E+00 6.05799E-01
 -1       339 1.00000E+01 6.05799E-01 6.05799E-01
 -1       340 1.00000E+01 6.05799E-01 1.43913E+00
 -1       341 1.00000E+01 6.10042E-01 9.38996E+00
 -1       342 1.00000E+01 1.44338E+00 9.38996E+00
 -1       343 1.00000E+01 6.10042E-01 8.55662E+00
 -1       344 1.00000E+01 9.29436E+00 2.92020E+00
 -1       345 1.00000E+01 9.29436E+00 2.08686E+00
 -1       346 1.00000E+01 8.68431E+00 1.86357E+00
 -1       347 1.00000E+01 9.27907E+00 4.58752E+00
 -1       348 1.00000E+01 9.27907E+00 3.75419E+00
 -1       349 1.00000E+01 8.57343E+00 3.34105E+00
 -1       350 1.00000E+01 9.27831E+00 6.25000E+00
 -1       351 1.00000E+01 9.27831E+00 5.41667E+00
 -1       352 1.00000E+01 8.55738E+00 5.00419E+00
 -1       353 1.00000E+01 9.29436E+00 7.91314E+00
 -1       354 1.00000E+01 9.29436E+00 7.07980E+00
 -1       355 1.00000E+01 8.57267E+00 6.66314E+00
 -1       356 1.00000E+01 8.68431E+00 8.13643E+00
 -1       357 1.00000E+01 2.89607E+00 6.78151E-01
 -1       358 1.00000E+01 2.06273E+00 6.78151E-01
 -1       359 1.00000E+01 1.83520E+00 1.28395E+00
 -1       360 1.00000E+01 4.60195E+00 8.43926E-01
 -1       361 1.00000E+01 3.76862E+00 8.43926E-01
 -1       362 1.00000E+01 3.33135E+00 1.52208E+00
 -1       363 1.00000E+01 6.32227E+00 7.46913E-01
 -1       364 1.00000E+01 5.48894E+00 7.46913E-01
 -1       365 1.00000E+01 5.09089E+00 1.59084E+00
 -1       366 1.00000E+01 7.92369E+00 6.94135E-01
 -1       367 1.00000E+01 7.09036E+00 6.94135E-01
 -1       368 1.00000E+01 6.74596E+00 1.44105E+00
 -1       369 1.00000E+01 8.14698E+00 1.30418E+00
 -1       370 1.00000E+01 2.07186E+00 9.30581E+00
 -1       371 1.00000E+01 2.90520E+00 9.30581E+00
 -1       372 1.00000E+01 1.84857E+00 8.69577E+00
 -1       373 1.00000E+01 3.77127E+00 9.15901E+00
 -1       374 1.00000E+01 4.60461E+00 9.15901E+00
 -1       375 1.00000E+01 3.34314E+00 8.46482E+00
 -1       376 1.00000E+01 5.48894E+00 9.25309E+00
 -1       377 1.00000E+01 6.32227E+00 9.25309E+00
 -1       378 1.00000E+01 5.09354E+00 8.41209E+00
 -1       379 1.00000E+01 7.09081E+00 9.30678E+00
 -1       380 1.00000E+01 7.92415E+00 9.30678E+00
 -1       381 1.00000E+01 6.74642E+00 8.55986E+00
 -1       382 1.00000E+01 8.14744E+00 8.69673E+00
 -1       383 1.00000E+01 6.56536E-01 2.04237E+00
 -1       384 1.00000E+01 6.56536E-01 2.87570E+00
 -1       385 1.00000E+01 1.26234E+00 1.81484E+00
 -1       386 1.00000E+01 6.75817E-01 3.69664E+00
 -1       387 1.00000E+01 6.75817E-01 4.52998E+00
 -1       388 1.00000E+01 1.33235E+00 3.23901E+00
 -1       389 1.00000E+01 7.54213E-01 5.40755E+00
 -1       390 1.00000E+01 7.54213E-01 6.24089E+00
 -1       391 1.00000E+01 1.43003E+00 4.93753E+00
 -1       392 1.00000E+01 6.84747E-01 7.09775E+00
 -1       393 1.00000E+01 6.84747E-01 7.93108E+00
 -1       394 1.00000E+01 1.43896E+00 6.67197E+00
 -1       395 1.00000E+01 1.29479E+00 8.15437E+00
 -1       396 1.00000E+01 7.78200E+00 7.20929E+00
 -1       397 1.00000E+01 7.76596E+00 6.37949E+00
 -1       398 1.00000E+01 7.03277E+00 5.98441E+00
 -1       399 1.00000E+01 7.82344E+00 5.43825E+00
 -1       400 1.00000E+01 7.82420E+00 4.60910E+00
 -1       401 1.00000E+01 2.09367E+00 4.23231E+00
 -1       402 1.00000E+01 2.17207E+00 5.10988E+00
 -1       403 1.00000E+01 2.99472E+00 5.11507E+00
 -1       404 1.00000E+01 2.33107E+00 5.82029E+00
 -1       405 1.00000E+01 2.16625E+00 6.47136E+00
 -1       406 1.00000E+01 2.09678E+00 7.32823E+00
 -1       407 1.00000E+01 2.98889E+00 6.47655E+00
 -1       408 1.00000E+01 5.68907E+00 2.13636E+00
 -1       409 1.00000E+01 4.80208E+00 2.23337E+00
 -1       410 1.00000E+01 7.24087E+00 2.23896E+00
 -1       411 1.00000E+01 6.47278E+00 2.29174E+00
 -1       412 1.00000E+01 6.18397E+00 2.93427E+00
 -1       413 1.00000E+01 7.24512E+00 7.76960E+00
 -1       414 1.00000E+01 6.47658E+00 7.71591E+00
 -1       415 1.00000E+01 5.74014E+00 7.85805E+00
 -1       416 1.00000E+01 6.23885E+00 7.06779E+00
 -1       417 1.00000E+01 4.85581E+00 7.76397E+00
 -1       418 1.00000E+01 3.51855E+00 2.25996E+00
 -1       419 1.00000E+01 2.64600E+00 2.09419E+00
 -1       420 1.00000E+01 2.07313E+00 2.62507E+00
 -1       421 1.00000E+01 1.88594E+00 1.88719E+00
 -1       422 1.00000E+01 7.76291E+00 3.63234E+00
 -1       423 1.00000E+01 7.77820E+00 2.79836E+00
 -1       424 1.00000E+01 8.05138E+00 1.94767E+00
 -1       425 1.00000E+01 2.65057E+00 7.86962E+00
 -1       426 1.00000E+01 3.51664E+00 7.72282E+00
 -1       427 1.00000E+01 1.92328E+00 8.07023E+00
 -1       428 1.00000E+01 8.05184E+00 8.05324E+00
 -1       429 1.00000E+01 6.32258E+00 6.37949E+00
 -1       430 1.00000E+01 6.38006E+00 5.43825E+00
 -1       431 1.00000E+01 5.58614E+00 6.52164E+00
 -1       432 1.00000E+01 5.65400E+00 5.02777E+00
 -1       433 1.00000E+01 6.36419E+00 4.63268E+00
 -1       434 1.00000E+01 6.30291E+00 3.65593E+00
 -1       435 1.00000E+01 7.02897E+00 4.06641E+00
 -1       436 1.00000E+01 4.96025E+00 5.42129E+00
 -1       437 1.00000E+01 4.94438E+00 4.61573E+00
 -1       438 1.00000E+01 4.94818E+00 6.25000E+00
 -1       439 1.00000E+01 4.23857E+00 5.83796E+00
 -1       440 1.00000E+01 4.86445E+00 6.93830E+00
 -1       441 1.00000E+01 4.23217E+00 4.20508E+00
 -1       442 1.00000E+01 4.92591E+00 3.81155E+00
 -1       443 1.00000E+01 4.80698E+00 3.08990E+00
 -1       444 1.00000E+01 5.51919E+00 3.50055E+00
 -1       445 1.00000E+01 3.69011E+00 6.24607E+00
 -1       446 1.00000E+01 3.70218E+00 5.41737E+00
 -1       447 1.00000E+01 3.54317E+00 4.70696E+00
 -1       448 1.00000E+01 3.52471E+00 3.90278E+00
 -1       449 1.00000E+01 3.52528E+00 6.89714E+00
 -1       450 1.00000E+01 4.21786E+00 7.49234E+00
 -1       451 1.00000E+01 2.83445E+00 3.61837E+00
 -1       452 1.00000E+01 3.52345E+00 3.11649E+00
 -1       453 1.00000E+01 4.20880E+00 2.54438E+00
 -1       454 1.00000E+01 2.09241E+00 3.44601E+00
 -1       455 8.55662E+00-2.77556E-16 5.83333E+00
 -1       456 1.50843E+00-2.77556E-16 5.81511E+00
 -1       457 5.97788E+00-2.77556E-16 1.49383E+00
 -1       458 5.97788E+00-2.77556E-16 8.50617E+00
 -1       459 2.45880E+00-2.77556E-16 1.35630E+00
 -1       460 8.58871E+00-2.77556E-16 2.50706E+00
 -1       461 2.47706E+00-2.77556E-16 8.61162E+00
 -1       462 8.58871E+00-2.77556E-16 7.49294E+00
 -1       463 6.97529E+00-2.77556E-16 6.92565E+00
 -1       464 7.09026E+00-2.77556E-16 5.04316E+00
 -1       465 5.66987E+00-2.77556E-16 5.83333E+00
 -1       466 5.63813E+00-2.77556E-16 4.22220E+00
 -1       467 4.25064E+00-2.77556E-16 5.00926E+00
 -1       468 4.22650E+00-2.77556E-16 6.66667E+00
 -1       469 4.21370E+00-2.77556E-16 3.40091E+00
 -1       470 2.83571E+00-2.77556E-16 4.40466E+00
 -1       471 8.55814E+00-2.77556E-16 4.17504E+00
 -1       472 4.20391E+00-2.77556E-16 1.68785E+00
 -1       473 4.20921E+00-2.77556E-16 8.31801E+00
 -1       474 6.96768E+00-2.77556E-16 3.08965E+00
 -1       475 7.51496E+00-2.77556E-16 8.61355E+00
 -1       476 7.51405E+00-2.77556E-16 1.38827E+00
 -1       477 1.36949E+00-2.77556E-16 7.52883E+00
 -1       478 1.31307E+00-2.77556E-16 2.41807E+00
 -1       479 1.35163E+00-2.77556E-16 4.05995E+00
 -1       480 3.15372E+00-2.77556E-16 5.82548E+00
 -1       481 2.83319E+00-2.77556E-16 2.83208E+00
 -1       482 2.82407E+00-2.77556E-16 7.12762E+00
 -1       483 5.50240E+00-2.77556E-16 7.20994E+00
 -1       484 5.40026E+00-2.77556E-16 2.77889E+00
 -1       485 8.77991E+00-2.77556E-16 8.77991E+00
 -1       486 1.22008E+00-2.77556E-16 8.77991E+00
 -1       487 8.77991E+00-2.77556E-16 1.22008E+00
 -1       488 1.21160E+00-2.77556E-16 1.21160E+00
 -1       489 9.38996E+00-2.77556E-16 1.44338E+00
 -1       490 9.38996E+00-2.77556E-16 6.10042E-01
 -1       491 8.55662E+00-2.77556E-16 6.10042E-01
 -1       492 9.38996E+00-2.77556E-16 9.38996E+00
 -1       493 9.38996E+00-2.77556E-16 8.55662E+00
 -1       494 8.55662E+00-2.77556E-16 9.38996E+00
 -1       495 1.43913E+00-2.77556E-16 6.05799E-01
 -1       496 6.05799E-01-2.77556E-16 6.05799E-01
 -1       497 6.05799E-01-2.77556E-16 1.43913E+00
 -1       498 6.10042E-01-2.77556E-16 9.38996E+00
 -1       499 1.44338E+00-2.77556E-16 9.38996E+00
 -1       500 6.10042E-01-2.77556E-16 8.55662E+00
 -1       501 9.29436E+00-2.77556E-16 2.92020E+00
 -1       502 9.29436E+00-2.77556E-16 2.08686E+00
 -1       503 8.68431E+00-2.77556E-16 1.86357E+00
 -1       504 9.27907E+00-2.77556E-16 4.58752E+00
 -1       505 9.27907E+00-2.77556E-16 3.75419E+00
 -1       506 8.57343E+00-2.77556E-16 3.34105E+00
 -1       507 9.27831E+00-2.77556E-16 6.25000E+00
 -1       508 9.27831E+00-2.77556E-16 5.41667E+00
 -1       509 8.55738E+00-2.77556E-16 5.00419E+00
 -1       510 9.29436E+00-2.77556E-16 7.91314E+00
 -1       511 9.29436E+00-2.77556E-16 7.07980E+00
 -1       512 8.57267E+00-2.77556E-16 6.66314E+00
 -1       513 8.68431E+00-2.77556E-16 8.13643E+00
 -1       514 2.89607E+00-2.77556E-16 6.78151E-01
 -1       515 2.06273E+00-2.77556E-16 6.78151E-01
 -1       516 1.83520E+00-2.77556E-16 1.28395E+00
 -1       517 4.60195E+00-2.77556E-16 8.43926E-01
 -1       518 3.76862E+00-2.77556E-16 8.43926E-01
 -1       519 3.33135E+00-2.77556E-16 1.52208E+00
 -1       520 6.32227E+00-2.77556E-16 7.46913E-01
 -1       521 5.48894E+00-2.77556E-16 7.46913E-01
 -1       522 5.09089E+00-2.77556E-16 1.59084E+00
 -1       523 7.92369E+00-2.77556E-16 6.94135E-01
 -1       524 7.09036E+00-2.77556E-16 6.94135E-01
 -1       525 6.74596E+00-2.77556E-16 1.44105E+00
 -1       526 8.14698E+00-2.77556E-16 1.30418E+00
 -1       527 2.07186E+00-2.77556E-16 9.30581E+00
 -1       528 2.90520E+00-2.77556E-16 9.30581E+00
 -1       529 1.84857E+00-2.77556E-16 8.69577E+00
 -1       530 3.77127E+00-2.77556E-16 9.15901E+00
 -1       531 4.60461E+00-2.77556E-16 9.15901E+00
 -1       532 3.34314E+00-2.77556E-16 8.46482E+00
 -1       533 5.48894E+00-2.77556E-16 9.25309E+00
 -1       534 6.32227E+00-2.77556E-16 9.25309E+00
 -1       535 5.09354E+00-2.77556E-16 8.41209E+00
 -1       536 7.09081E+00-2.77556E-16 9.30678E+00
 -1       537 7.92415E+00-2.77556E-16 9.30678E+00
 -1       538 6.74642E+00-2.77556E-16 8.55986E+00
 -1       539 8.14744E+00-2.77556E-16 8.69673E+00
 -1       540 6.56536E-01-2.77556E-16 2.04237E+00
 -1       541 6.56536E-01-2.77556E-16 2.87570E+00
 -1       542 1.26234E+00-2.77556E-16 1.81484E+00
 -1       543 6.75817E-01-2.77556E-16 3.69664E+00
 -1       544 6.75817E-01-2.77556E-16 4.52998E+00
 -1       545 1.33235E+00-2.77556E-16 3.23901E+00
 -1       546 7.54213E-01-2.77556E-16 5.40755E+00
 -1       547 7.54213E-01-2.77556E-16 6.24089E+00
 -1       548 1.43003E+00-2.77556E-16 4.93753E+00
 -1       549 6.84747E-01-2.77556E-16 7.09775E+00
 -1       550 6.84747E-01-2.77556E-16 7.93108E+00
 -1       551 1.43896E+00-2.77556E-16 6.67197E+00
 -1       552 1.29479E+00-2.77556E-16 8.15437E+00
 -1       553 7.78200E+00-2.77556E-16 7.20929E+00
 -1       554 7.76596E+00-2.77556E-16 6.37949E+00
 -1       555 7.03277E+00-2.77556E-16 5.98441E+00
 -1       556 7.82344E+00-2.77556E-16 5.43825E+00
 -1       557 7.82420E+00-2.77556E-16 4.60910E+00
 -1       558 2.09367E+00-2.77556E-16 4.23231E+00
 -1       559 2.17207E+00-2.77556E-16 5.10988E+00
 -1       560 2.99472E+00-2.77556E-16 5.11507E+00
 -1       561 2.33107E+00-2.77556E-16 5.82029E+00
 -1       562 2.16625E+00-2.77556E-16 6.47136E+00
 -1       563 2.09678E+00-2.77556E-16 7.32823E+00
 -1       564 2.98889E+00-2.77556E-16 6.47655E+00
 -1       565 5.68907E+00-2.77556E-16 2.13636E+00
 -1       566 4.80208E+00-2.77556E-16 2.23337E+00
 -1       567 7.24087E+00-2.77556E-16 2.23896E+00
 -1       568 6.47278E+00-2.77556E-16 2.29174E+00
 -1       569 6.18397E+00-2.77556E-16 2.93427E+00
 -1       570 7.24512E+00-2.77556E-16 7.76960E+00
 -1       571 6.47658E+00-2.77556E-16 7.71591E+00
 -1       572 5.74014E+00-2.77556E-16 7.85805E+00
 -1       573 6.23885E+00-2.77556E-16 7.06779E+00
 -1       574 4.85581E+00-2.77556E-16 7.76397E+00
 -1       575 3.51855E+00-2.77556E-16 2.25996E+00
 -1       576 2.64600E+00-2.77556E-16 2.09419E+00
 -1       577 2.07313E+00-2.77556E-16 2.62507E+00
 -1       578 1.88594E+00-2.77556E-16 1.88719E+00
 -1       579 7.76291E+00-2.77556E-16 3.63234E+00
 -1       580 7.77820E+00-2.77556E-16 2.79836E+00
 -1       581 8.05138E+00-2.77556E-16 1.94767E+00
 -1       582 2.65057E+00-2.77556E-16 7.86962E+00
 -1       583 3.51664E+00-2.77556E-16 7.72282E+00